./run.com: line 76: warning: here-document at line 1 delimited by end-of-file (wanted `eor')

 *******************************************************************************
 *                                                                             *
 *  --------------------------------                                           *
 *   Amsterdam Modeling Suite (AMS)              2019.304                      *
 *  --------------------------------                                           *
 *                                               r84175 2020-05-08             *
 *                                                                             *
 *                                                                             *
 *                            =====================                            *
 *                            |                   |                            *
 *                            |     D I R A C     |                            *
 *                            |                   |                            *
 *                            =====================                            *
 *                                                                             *
 *                                                                             *
 *   Online information and documentation:  https://www.scm.com/support/       *
 *   E-mail:  support@scm.com   info@scm.com                                   *
 *                                                                             *
 *   Scientific publications using AMS results must be properly referenced     *
 *   See the User Manuals (or the web site) for recommended citations          *
 *   The terms and conditions of the End User License Agreement apply to       *
 *   the use of AMS, https://www.scm.com/license-terms/                        *
 *                                                                             *
 **********************  x86_64_linux_intel / intelmpi  ************************
 
 Licensed to: Prof. Pere Miro / University of South Dakota, Department of Chemistry / Vermillion / SD / USA
 SCM User ID: u19501
  
 DIRAC 2019.304  RunTime: Jun29-2020 15:31:55  Nodes: 1  Procs: 1

 Temporary files are created in /scratch/job_849606/kid_0.1181487157 (0x58465342)

1
 PLUTONIUM ATOM 4f CORE RELATIVISTIC, Point Nuc, A and c from
 N J RN H ZN XION ANUC CLIGHT
 5000   29100.00000000197.36710137 94.00000000  0.00000000  244.000000  0.1370360E+03
  PH   PHI     EPS        DEL        DELRVR
  0.30  0.30     2500.00  0.00001000  0.00001000
 IDIRC  NC1  NDEBU NPRIN  IPUN IRCOR IWCOR
   1   300     0     0     0     0    16
   XALPHA      XLATTER      RNUC
  0.70000000  0.00000000  0.00000000 Point Charge
   XN   XL   XJ      XE          XZ      XDELL
  1.0  0.0  0.5   -2600.000       2.000     0.00000
  2.0  0.0  0.5    -425.000       2.000     0.00000
  2.0  1.0  0.5    -425.000       2.000     0.00000
  2.0  1.0  1.5    -425.000       4.000     0.00000
  3.0  0.0  0.5    -100.000       2.000     0.00000
  3.0  1.0  0.5    -100.000       2.000     0.00000
  3.0  1.0  1.5    -100.000       4.000     0.00000
  3.0  2.0  1.5     -80.000       4.000     0.00000
  3.0  2.0  2.5     -80.000       6.000     0.00000
  4.0  0.0  0.5     -22.000       2.000     0.00000
  4.0  1.0  0.5     -20.000       2.000     0.00000
  4.0  1.0  1.5     -20.000       4.000     0.00000
  4.0  2.0  1.5     -11.000       4.000     0.00000
  4.0  2.0  2.5     -11.000       6.000     0.00000
  4.0  3.0  2.5      -1.500       6.000     0.00000
  4.0  3.0  3.5      -1.500       8.000     0.00000
  5.0  0.0  0.5      -3.000       2.000     0.00000
  5.0  1.0  0.5      -2.200       2.000     0.00000
  5.0  1.0  1.5      -2.200       4.000     0.00000
  5.0  2.0  1.5      -1.000       4.000     0.00000
  5.0  2.0  2.5      -1.000       6.000     0.00000
  6.0  0.0  0.5      -0.750       2.000     0.00000
  6.0  1.0  0.5      -0.750       2.000     0.00000
  6.0  1.0  1.5      -0.500       4.000     0.00000
  5.0  3.0  2.5      -0.100       5.000     0.00000
  5.0  3.0  3.5      -0.100       0.000     0.00000
  6.0  2.0  1.5      -0.100       1.000     0.00000
  6.0  2.0  2.5      -0.100       0.000     0.00000
  7.0  0.0  0.5      -0.250       2.000     0.00000
 ICORP=  0  NPCL=  0  DEMP=0.00  PEPS=0.000000
 R(1)=  0.1000000E-08 D=  0.1005080E+01 RNUC=  0.0000000E+00
 TOO MANY NODES 6.0 5.0 3.0 3.5 -0.1473468E+00 -0.1438918E+00 -0.1404368E+00
 TOO MANY NODES 6.0 5.0 3.0 3.5 -0.1442275E+00 -0.1399457E+00 -0.1356638E+00
 TOO MANY NODES 6.0 5.0 3.0 2.5 -0.1703757E+00 -0.1667796E+00 -0.1631835E+00
 TOO MANY NODES 6.0 5.0 3.0 3.5 -0.1306671E+00 -0.1276944E+00 -0.1247217E+00
 converged at cycle   61  DENSITY AVERAGING    0.0786
  MAXIMUM ERROR IN R.V(R) IS   0.80787746E-05
 Q,EY,EV,EZ,ESUM,ETOT,RHO  0.940000E+02 -0.663160E+03 -0.557138E+05 -0.771289E+05 -0.188176E+05 -0.296910E+05  0.588264E-07


 DIRAC CALCULATION
1                    PLUTONIUM ATOM 4f CORE RELATIVISTIC, Point Nuc, A and c from libtc


 EXCHANGE COEFFICIENT=  0.7000000           TAIL CORRECTION=  0.           NUCLEAR RADIUS=  0.000E+00
0                       ORBITAL    N    L    J     ELECTRONS     EIGENVALUE                DELTA OF EIGENV.

                          1S1/2  1.0  0.0  0.5     2.000       -0.4485973E+04                 0.5405874E-04
                          2S1/2  2.0  0.0  0.5     2.000       -0.8449867E+03                 0.5084222E-04
                          2P1/2  2.0  1.0  0.5     2.000       -0.8154061E+03                 0.5214533E-04
                          2P3/2  2.0  1.0  1.5     4.000       -0.6586704E+03                 0.5102133E-04
                          3S1/2  3.0  0.0  0.5     2.000       -0.2148576E+03                 0.4137748E-04
                          3P1/2  3.0  1.0  0.5     2.000       -0.2014109E+03                 0.4229699E-04
                          3P3/2  3.0  1.0  1.5     4.000       -0.1650823E+03                 0.4044549E-04
                          3D3/2  3.0  2.0  1.5     4.000       -0.1439702E+03                 0.4258128E-04
                          3D5/2  3.0  2.0  2.5     6.000       -0.1366868E+03                 0.4200939E-04
                          4S1/2  4.0  0.0  0.5     2.000       -0.5545742E+02                 0.2717297E-04
                          4P1/2  4.0  1.0  0.5     2.000       -0.4936462E+02                 0.2739982E-04
                          4P3/2  4.0  1.0  1.5     4.000       -0.3977566E+02                 0.2489718E-04
                          4D3/2  4.0  2.0  1.5     4.000       -0.3012815E+02                 0.2535158E-04
                          4D5/2  4.0  2.0  2.5     6.000       -0.2837682E+02                 0.2465094E-04
                          4F5/2  4.0  3.0  2.5     6.000       -0.1566756E+02                 0.2565091E-04
                          4F7/2  4.0  3.0  3.5     8.000       -0.1520199E+02                 0.2530533E-04
                          5S1/2  5.0  0.0  0.5     2.000       -0.1247184E+02                 0.1306614E-04
                          5P1/2  5.0  1.0  0.5     2.000       -0.1006245E+02                 0.1260483E-04
                          5P3/2  5.0  1.0  1.5     4.000       -0.7716155E+01                 0.1106046E-04
                          5D3/2  5.0  2.0  1.5     4.000       -0.4197753E+01                 0.9901653E-05
                          5D5/2  5.0  2.0  2.5     6.000       -0.3848354E+01                 0.9515466E-05
                          6S1/2  6.0  0.0  0.5     2.000       -0.1867477E+01                 0.4967155E-05
                          6P1/2  6.0  1.0  0.5     2.000       -0.1162734E+01                 0.4316343E-05
                          6P3/2  6.0  1.0  1.5     4.000       -0.7814233E+00                 0.3525433E-05
                          5F5/2  5.0  3.0  2.5     5.000       -0.1695515E+00                 0.5946427E-05
                          5F7/2  5.0  3.0  3.5     0.000       -0.1291755E+00                 0.5717470E-05
                          6D3/2  6.0  2.0  1.5     1.000       -0.6691978E-01                 0.1686641E-05
                          6D5/2  6.0  2.0  2.5     0.000       -0.4809015E-01                 0.1487755E-05
                          7S1/2  7.0  0.0  0.5     2.000       -0.1389584E+00                 0.1040515E-05


                                        NUCLEAR CHARGE=   94.000000
                            INTEGRAL OF CHARGE DENSITY=   94.000000
                           SUM OF THE ORBITAL ENERGIES= -18817.6158
                                          TOTAL ENERGY= -29690.9716
                                        KINETIC ENERGY=  36896.1454
                             NUCLEAR ATTRACTION ENERGY= -77128.8927
                             ELECTRON REPULSION ENERGY=  11039.1457
                                       EXCHANGE ENERGY=   -497.3699

 *******************************************************************************

                             D I R A C   E X I T
 NORMAL TERMINATION



 =================
 Timing Statistics
 =================
  
 Total Used :                     CPU=        1.06      System=        0.02     Elapsed=        1.09

 Calls  Section                     ( Mean, Percentage )
 ---------------------------------------------------------------------------------------------------
     2  ><      ................      0.00    0.00             0.00    0.09             0.00    0.00
     1  EXIT PROCEDURE .........      1.06  100.00             0.02   99.91             1.09  100.00


 Currently Open Files (EXIT00)
 ====================

 Unit    Access Format  Status   Type       Ident (file)
 -------------------------------------------------------
   3      SEQ    FORM   TRANSP  NORMAL      LOGFILE
                                          ( logfile )
NORMAL TERMINATION
 
Create Pu   file=TZP-Pu.4f
XC
GGA PBE
DISPERSION Grimme3 BJDAMP
End
relativistic ZORA
Corepotentials t12.rel
End

 *******************************************************************************
 *                                                                             *
 *  --------------------------------                                           *
 *   Amsterdam Modeling Suite (AMS)              2019.304                      *
 *  --------------------------------                                           *
 *                                               r84175 2020-05-08             *
 *                                                                             *
 *                                                                             *
 *                              =================                              *
 *                              |               |                              *
 *                              |     A D F     |                              *
 *                              |               |                              *
 *                              =================                              *
 *                                                                             *
 *                                                                             *
 *   Online information and documentation:  https://www.scm.com/support/       *
 *   E-mail:  support@scm.com   info@scm.com                                   *
 *                                                                             *
 *   Scientific publications using AMS results must be properly referenced     *
 *   See the User Manuals (or the web site) for recommended citations          *
 *   The terms and conditions of the End User License Agreement apply to       *
 *   the use of AMS, https://www.scm.com/license-terms/                        *
 *                                                                             *
 **********************  x86_64_linux_intel / intelmpi  ************************
 
 Licensed to: Prof. Pere Miro / University of South Dakota, Department of Chemistry / Vermillion / SD / USA
 SCM User ID: u19501
  
 ADF 2019.304  RunTime: Jun29-2020 15:31:57  Nodes: 1  Procs: 1

 Temporary files are created in /scratch/job_849606/kid_0.1586815202 (0x58465342)

 Plutonium (TZP, 4f frozen)



 ===========================
 A T T A C H E D   F I L E S
 ===========================
  
 CREATE - Data File:    TZP-Pu.4f
                        Plutonium (TZP, 4f frozen)
 Core Potentials:
         file : t12.rel



 ===============================
 M O D E L   P A R A M E T E R S
 ===============================
  
 DENSITY FUNCTIONAL POTENTIAL (scf)
    LDA:                               PW92                                    == Not Default ==
    Gradient Corrections:              PBEc PBEx                               == Not Default ==

 SPIN  (restricted / unrestr.)
    Molecule:                          Restricted                               

 OTHER ASPECTS
    Relativistic Corrections:          scalar (ZORA,MAPA)                      == Not Default ==

    Nuclear Charge Density Model:      Point Charge Nuclei                      
    Core Treatment:                    Frozen Orbital(s)                        

    Hyperfine or Zeeman Interaction:   ---                                      

 Settings for Grimme D3 dispersion correction

      damping                        BJ
      s6                          1.000
      s8                          0.788
      a1                          0.429
      a2                          4.441

 Other (technical) parameters

      alpha                      14.000
      version                         4
 



 =====================================
 S Y M M E T R Y ,   E L E C T R O N S
 =====================================
  
 Symmetry: ATOM

 Irreducible Representations, including subspecies
 -------------------------------------------------
 S
 P:x  P:y  P:z
 D:z2  D:x2-y2  D:xy  D:xz  D:yz
 F:z3  F:z  F:xyz  F:z2x  F:z2y  F:x  F:y


 Configuration of Valence Electrons
 ==================================

          Occupation Numbers
          -------------------------------------------------
 S        3*2
 P        2*6
 D        10
 F        6
          -------------------------------------------------

 Total:   34

 Net Charge: 0 (Nuclei minus Electrons)

 Preset values for MO occupations will be applied through SCF cycle no. 1000000
 Thereafter, the program will assign electrons to MOs that are spatially
 similar to the occupied MOs in a "reference" cycle ("KeepOrbitals").
 The reference cycle is always the PREVIOUS cycle: it will evolve with
 the SCF procedure.



 ================================
 (Slater-type)  F U N C T I O N S  ***  (Basis and Fit)  ***
 ================================
  

 Atom Type    1  (Pu)
 ==============

 Valence Basis Sets:  32
 -----------------------
   1 S   72.000000
   2 S   45.450000
   3 S   27.100000
   4 S   15.300000
   2 P   46.650000
   3 P   24.650000
   4 P   14.600000
   3 D   28.800000
   4 D   13.700000
   4 F   15.450000
   5 S   10.950000
   5 S    7.650000
   1 S  256.000000
   6 S    5.250000
   6 S    3.450000
   7 S    2.450000
   7 S    1.600000
   7 S    1.030000
   6 P    4.650000
   5 P    9.050000
   5 P    6.250000
   6 P    3.150000
   6 P    2.150000
   6 D    2.950000
   5 D    7.650000
   5 D    4.900000
   6 D    1.600000
   6 D    0.880000
   5 F    6.350000
   5 F    3.350000
   5 F    1.650000
   7 P    1.600000

 Frozen Core Shells
 ------------------
    S:  4
    P:  3
    D:  2
    F:  1


 BAS: List of all Elementary Cartesian Basis Functions
 =====================================================

 The numbering in the list below (to the right of the function characteristics) is referred
 to in print-outs of MO eigenvectors and Mulliken populations in the BAS representation
 (as contrasted to the SFO representation).

 Notes:
 1. The functions are characterized by a polynomial prefactor (powers of x,y,z and r) and
    an exponential decay factor alpha.
 2. Since the basis sets are specific for an atom TYPE, the individual functions occur on
    all atoms of that type.
 3. The word 'Core' in the left margin signals that it is a Core Function (CF) : not a
    degree of freedom in the valence set, but only used to ensure orthogonalization of
    the other valence basis functions on the frozen Core Orbitals.


 (power of) X  Y  Z  R     Alpha  on Atom
            ==========     =====     ==========

 Pu                                   1
                                  ---------------------------------------------------------------------------
    Core    0  0  0  0    72.000      1
    Core    0  0  0  1    45.450      2
    Core    0  0  0  2    27.100      3
    Core    0  0  0  3    15.300      4
    Core    1  0  0  0    46.650      5
    Core    0  1  0  0    46.650      6
    Core    0  0  1  0    46.650      7
    Core    1  0  0  1    24.650      8
    Core    0  1  0  1    24.650      9
    Core    0  0  1  1    24.650     10
    Core    1  0  0  2    14.600     11
    Core    0  1  0  2    14.600     12
    Core    0  0  1  2    14.600     13
    Core    2  0  0  0    28.800     14
    Core    1  1  0  0    28.800     15
    Core    1  0  1  0    28.800     16
    Core    0  2  0  0    28.800     17
    Core    0  1  1  0    28.800     18
    Core    0  0  2  0    28.800     19
    Core    2  0  0  1    13.700     20
    Core    1  1  0  1    13.700     21
    Core    1  0  1  1    13.700     22
    Core    0  2  0  1    13.700     23
    Core    0  1  1  1    13.700     24
    Core    0  0  2  1    13.700     25
    Core    3  0  0  0    15.450     26
    Core    2  1  0  0    15.450     27
    Core    2  0  1  0    15.450     28
    Core    1  2  0  0    15.450     29
    Core    1  1  1  0    15.450     30
    Core    1  0  2  0    15.450     31
    Core    0  3  0  0    15.450     32
    Core    0  2  1  0    15.450     33
    Core    0  1  2  0    15.450     34
    Core    0  0  3  0    15.450     35
            0  0  0  4    10.950     36
            0  0  0  4     7.650     37
            0  0  0  0   256.000     38
            0  0  0  5     5.250     39
            0  0  0  5     3.450     40
            0  0  0  6     2.450     41
            0  0  0  6     1.600     42
            0  0  0  6     1.030     43
            1  0  0  4     4.650     44
            0  1  0  4     4.650     45
            0  0  1  4     4.650     46
            1  0  0  3     9.050     47
            0  1  0  3     9.050     48
            0  0  1  3     9.050     49
            1  0  0  3     6.250     50
            0  1  0  3     6.250     51
            0  0  1  3     6.250     52
            1  0  0  4     3.150     53
            0  1  0  4     3.150     54
            0  0  1  4     3.150     55
            1  0  0  4     2.150     56
            0  1  0  4     2.150     57
            0  0  1  4     2.150     58
            2  0  0  3     2.950     59
            1  1  0  3     2.950     60
            1  0  1  3     2.950     61
            0  2  0  3     2.950     62
            0  1  1  3     2.950     63
            0  0  2  3     2.950     64
            2  0  0  2     7.650     65
            1  1  0  2     7.650     66
            1  0  1  2     7.650     67
            0  2  0  2     7.650     68
            0  1  1  2     7.650     69
            0  0  2  2     7.650     70
            2  0  0  2     4.900     71
            1  1  0  2     4.900     72
            1  0  1  2     4.900     73
            0  2  0  2     4.900     74
            0  1  1  2     4.900     75
            0  0  2  2     4.900     76
            2  0  0  3     1.600     77
            1  1  0  3     1.600     78
            1  0  1  3     1.600     79
            0  2  0  3     1.600     80
            0  1  1  3     1.600     81
            0  0  2  3     1.600     82
            2  0  0  3     0.880     83
            1  1  0  3     0.880     84
            1  0  1  3     0.880     85
            0  2  0  3     0.880     86
            0  1  1  3     0.880     87
            0  0  2  3     0.880     88
            3  0  0  1     6.350     89
            2  1  0  1     6.350     90
            2  0  1  1     6.350     91
            1  2  0  1     6.350     92
            1  1  1  1     6.350     93
            1  0  2  1     6.350     94
            0  3  0  1     6.350     95
            0  2  1  1     6.350     96
            0  1  2  1     6.350     97
            0  0  3  1     6.350     98
            3  0  0  1     3.350     99
            2  1  0  1     3.350    100
            2  0  1  1     3.350    101
            1  2  0  1     3.350    102
            1  1  1  1     3.350    103
            1  0  2  1     3.350    104
            0  3  0  1     3.350    105
            0  2  1  1     3.350    106
            0  1  2  1     3.350    107
            0  0  3  1     3.350    108
            3  0  0  1     1.650    109
            2  1  0  1     1.650    110
            2  0  1  1     1.650    111
            1  2  0  1     1.650    112
            1  1  1  1     1.650    113
            1  0  2  1     1.650    114
            0  3  0  1     1.650    115
            0  2  1  1     1.650    116
            0  1  2  1     1.650    117
            0  0  3  1     1.650    118
            1  0  0  5     1.600    119
            0  1  0  5     1.600    120
            0  0  1  5     1.600    121

 Total number of charge fitting functions (nprimf)       389
 Total number of Cartesian basis functions (naos)        121
 Total number of Cartesian core functions  (ncos)         35



 BAS: List of all Elementary Cartesian Basis Functions
 =====================================================

 The numbering in the list below (to the right of the function characteristics) is referred
 to in print-outs of MO eigenvectors and Mulliken populations in the BAS representation
 (as contrasted to the SFO representation).

 Notes:
 1. The functions are characterized by a polynomial prefactor (powers of x,y,z and r) and
    an exponential decay factor alpha.
 2. Since the basis sets are specific for an atom TYPE, the individual functions occur on
    all atoms of that type.
 3. The word 'Core' in the left margin signals that it is a Core Function (CF) : not a
    degree of freedom in the valence set, but only used to ensure orthogonalization of
    the other valence basis functions on the frozen Core Orbitals.


 (power of) X  Y  Z  R     Alpha  on Atom
            ==========     =====     ==========

 Pu                                   1
                                  ---------------------------------------------------------------------------
    Core    0  0  0  0    72.000      1
    Core    0  0  0  1    45.450      2
    Core    0  0  0  2    27.100      3
    Core    0  0  0  3    15.300      4
    Core    1  0  0  0    46.650      5
    Core    0  1  0  0    46.650      6
    Core    0  0  1  0    46.650      7
    Core    1  0  0  1    24.650      8
    Core    0  1  0  1    24.650      9
    Core    0  0  1  1    24.650     10
    Core    1  0  0  2    14.600     11
    Core    0  1  0  2    14.600     12
    Core    0  0  1  2    14.600     13
    Core    2  0  0  0    28.800     14
    Core    1  1  0  0    28.800     15
    Core    1  0  1  0    28.800     16
    Core    0  2  0  0    28.800     17
    Core    0  1  1  0    28.800     18
    Core    0  0  2  0    28.800     19
    Core    2  0  0  1    13.700     20
    Core    1  1  0  1    13.700     21
    Core    1  0  1  1    13.700     22
    Core    0  2  0  1    13.700     23
    Core    0  1  1  1    13.700     24
    Core    0  0  2  1    13.700     25
    Core    3  0  0  0    15.450     26
    Core    2  1  0  0    15.450     27
    Core    2  0  1  0    15.450     28
    Core    1  2  0  0    15.450     29
    Core    1  1  1  0    15.450     30
    Core    1  0  2  0    15.450     31
    Core    0  3  0  0    15.450     32
    Core    0  2  1  0    15.450     33
    Core    0  1  2  0    15.450     34
    Core    0  0  3  0    15.450     35
            0  0  0  4    10.950     36
            0  0  0  4     7.650     37
            0  0  0  0   256.000     38
            0  0  0  5     5.250     39
            0  0  0  5     3.450     40
            0  0  0  6     2.450     41
            0  0  0  6     1.600     42
            0  0  0  6     1.030     43
            1  0  0  4     4.650     44
            0  1  0  4     4.650     45
            0  0  1  4     4.650     46
            1  0  0  3     9.050     47
            0  1  0  3     9.050     48
            0  0  1  3     9.050     49
            1  0  0  3     6.250     50
            0  1  0  3     6.250     51
            0  0  1  3     6.250     52
            1  0  0  4     3.150     53
            0  1  0  4     3.150     54
            0  0  1  4     3.150     55
            1  0  0  4     2.150     56
            0  1  0  4     2.150     57
            0  0  1  4     2.150     58
            2  0  0  3     2.950     59
            1  1  0  3     2.950     60
            1  0  1  3     2.950     61
            0  2  0  3     2.950     62
            0  1  1  3     2.950     63
            0  0  2  3     2.950     64
            2  0  0  2     7.650     65
            1  1  0  2     7.650     66
            1  0  1  2     7.650     67
            0  2  0  2     7.650     68
            0  1  1  2     7.650     69
            0  0  2  2     7.650     70
            2  0  0  2     4.900     71
            1  1  0  2     4.900     72
            1  0  1  2     4.900     73
            0  2  0  2     4.900     74
            0  1  1  2     4.900     75
            0  0  2  2     4.900     76
            2  0  0  3     1.600     77
            1  1  0  3     1.600     78
            1  0  1  3     1.600     79
            0  2  0  3     1.600     80
            0  1  1  3     1.600     81
            0  0  2  3     1.600     82
            2  0  0  3     0.880     83
            1  1  0  3     0.880     84
            1  0  1  3     0.880     85
            0  2  0  3     0.880     86
            0  1  1  3     0.880     87
            0  0  2  3     0.880     88
            3  0  0  1     6.350     89
            2  1  0  1     6.350     90
            2  0  1  1     6.350     91
            1  2  0  1     6.350     92
            1  1  1  1     6.350     93
            1  0  2  1     6.350     94
            0  3  0  1     6.350     95
            0  2  1  1     6.350     96
            0  1  2  1     6.350     97
            0  0  3  1     6.350     98
            3  0  0  1     3.350     99
            2  1  0  1     3.350    100
            2  0  1  1     3.350    101
            1  2  0  1     3.350    102
            1  1  1  1     3.350    103
            1  0  2  1     3.350    104
            0  3  0  1     3.350    105
            0  2  1  1     3.350    106
            0  1  2  1     3.350    107
            0  0  3  1     3.350    108
            3  0  0  1     1.650    109
            2  1  0  1     1.650    110
            2  0  1  1     1.650    111
            1  2  0  1     1.650    112
            1  1  1  1     1.650    113
            1  0  2  1     1.650    114
            0  3  0  1     1.650    115
            0  2  1  1     1.650    116
            0  1  2  1     1.650    117
            0  0  3  1     1.650    118
            1  0  0  5     1.600    119
            0  1  0  5     1.600    120
            0  0  1  5     1.600    121
1
 ***************************************************************************************************



                                              ***********************
                                              *  T E C H N I C A L  *
                                              ***********************
  



 =============================================================
 P A R A L L E L I Z A T I O N  and  V E C T O R I Z A T I O N
 =============================================================
  
 Nr of parallel processes:                                1
 Maximum vector length in NumInt loops:                 128



 =====================
 S C F   U P D A T E S
 =====================
  
 Max. nr. of cycles:                               300
 Convergence criterion:                              0.0000000100
   secondary criterion:                              0.0000000100

 Mix parameter (when DIIS does not apply):           0.2000000000
 Special mix parameter for the first cycle:          1.0000000000
 Mixed ADIIS+SDIIS will be used                  
    Max number of expansion vectors:                10
    Pure ADIIS when Max([F,P]) is above              0.1000000000
    Pure SDIIS when Max([F,P]) is below              0.0010000000
 Automatic ElectronSmearing (in case of problematic SCF convergence) disabled



 =================
 P R E C I S I O N  ***  (General: NumInt, NeglectFunctionTails, ...)  ***
 =================
  

 NumInt:           Target precision:                12.0000000000
 -------           Initial precision:               10.0000000000
                   Min. precision (optimization):   10.0000000000

 Neglect Functions:          Basis functions:        0.1000000000E-13
 ------------------          Fit functions:          0.1000000000E-13



 ===========================
 L I N E A R   S C A L I N G
 ===========================
  

 Cut-off radii density fit:                        0.1000000000E-97
 Overlap cut-off criterion AO matrix elements:     0.1000000000E-97
 Cut-offs for Coulomb potential and fitted density:0.1000000000E-97
 Cut-off criterion for Coulomb multipole terms:    0.1000000000E-97
 Progressive Convergence parameter:                 0.000000000    
1
 ***************************************************************************************************



                                            ***************************
                                            *  C O M P U T A T I O N  *
                                            ***************************
  

 Number of elements of the density matrix on this node (used, total):      7381      7381



 ===========================================
 Numerical Integration : Fuzzy Cells (Becke)
 ===========================================
  
 Becke grid quality: VERYGOOD       
  
 Lebedev angular grid order:             min:  13 max:  41
 Nr. of radial points:                   min: 187 max: 187

 Total nr. of points:        187
 Nr. of blocks:                2
 Block length:                94
 Nr. of dummy points:          1


 Test of Precision of the Numerical Integration Grid
 ===================================================

 Integral of the Total Core Density:                  60.00000005296910
 Relative Error:                                       8.828E-10



 ========================
 Density Fitting (zlmFit)
 ========================
  
 ZlmFit Fit Quality: VERYGOOD       
  
 Max L-expansion:                        min:   0 max:   0
 Nr. of radial interpolation points:     min: 380 max: 380



 =====
 S C F  ***  ScaSCF  ***
 =====
  

 CYCLE    1
 SCF Error: norm([F,P])=      0.000000000000, max([F,P])=      0.000000000000
 orbitals (Q,E):
 ---------------
 S :1...8            ( 2.00   -45.5879)  ( 2.00   -27.3909)  ( 2.00   -18.1796)  ( 0.00   -13.0052)
                     ( 0.00    -9.3011)  ( 0.00    -6.2757)  ( 0.00    -3.9861)  ( 0.00  4652.6113)
 P :1...6            ( 6.00   -40.5436)  ( 6.00   -25.0502)  ( 0.00   -17.0206)  ( 0.00   -12.1453)
                     ( 0.00    -8.6072)  ( 0.00    -5.7894)
 D :1...5            (10.00   -35.0952)  ( 0.00   -21.6947)  ( 0.00   -13.4068)  ( 0.00    -7.7820)
                     ( 0.00    -4.2607)
 F :1...3            ( 6.00   -29.1112)  ( 0.00   -16.8573)  ( 0.00    -9.0630)

 CYCLE    2
  SDIIS (wt  0.000):  1.0000  0.0000
 A-DIIS (wt  1.000):  0.1335  0.8665
  DIIS coefficients:  0.1335  0.8665
 SCF Error: norm([F,P])=     31.157817836857, max([F,P])=      9.320829162454
 orbitals (Q,E):
 ---------------
 S :1...4            ( 2.00    -9.4541)  ( 2.00    -2.2332)  ( 2.00    -1.0102)  ( 0.00    -0.5735)
 P :1...3            ( 6.00    -5.9801)  ( 6.00    -1.6073)  ( 0.00    -0.8014)
 D :1...2            (10.00    -2.6302)  ( 0.00    -0.9766)
 F :1...2            ( 6.00    -0.7702)  ( 0.00     0.0013)

 CYCLE    3
  SDIIS (wt  0.000):  0.3434  0.6566
 A-DIIS (wt  1.000):  0.2096  0.7904
  DIIS coefficients:  0.2096  0.7904
 SCF Error: norm([F,P])=     20.031958154621, max([F,P])=      4.096593879889
 orbitals (Q,E):
 ---------------
 S :1...4            ( 2.00   -15.2019)  ( 2.00    -3.3252)  ( 2.00    -0.4212)  ( 0.00     0.0014)
 P :1...3            ( 6.00   -10.9352)  ( 6.00    -2.0272)  ( 0.00    -0.1379)
 D :1...2            (10.00    -6.4767)  ( 0.00    -0.6928)
 F :1...2            ( 6.00    -2.0343)  ( 0.00     0.2058)

 CYCLE    4
  SDIIS (wt  0.000): -0.0901  0.2773  0.8128
 A-DIIS (wt  1.000):  0.0000  0.2465  0.7535
  DIIS coefficients:  0.0000  0.2465  0.7535
 SCF Error: norm([F,P])=      9.586831452361, max([F,P])=      1.927634994972
 orbitals (Q,E):
 ---------------
 S :1...4            ( 2.00   -11.3636)  ( 2.00    -1.4291)  ( 2.00    -0.0682)  ( 0.00     0.0711)
 P :1...3            ( 6.00    -7.3470)  ( 6.00    -0.5731)  ( 0.00     0.0539)
 D :1...2            (10.00    -3.2261)  ( 0.00     0.0302)
 F :1...2            ( 6.00     0.2693)  ( 0.00     0.6420)

 CYCLE    5
  SDIIS (wt  0.000): -0.0202 -0.0758  0.2887  0.8073
 A-DIIS (wt  1.000):  0.0000  0.0000  0.2857  0.7143
  DIIS coefficients:  0.0000  0.0000  0.2857  0.7143
 SCF Error: norm([F,P])=      4.755987815475, max([F,P])=      0.831384785353
 orbitals (Q,E):
 ---------------
 S :1...4            ( 2.00   -12.8381)  ( 2.00    -2.1752)  ( 2.00    -0.2145)  ( 0.00     0.0099)
 P :1...3            ( 6.00    -8.7334)  ( 6.00    -1.1371)  ( 0.00    -0.0500)
 D :1...2            (10.00    -4.4821)  ( 0.00    -0.1958)
 F :1...2            ( 6.00    -0.5043)  ( 0.00     0.3490)

 CYCLE    6
  SDIIS (wt  0.000):  0.0055 -0.0220 -0.0900  0.2765  0.8299
 A-DIIS (wt  1.000):  0.0000  0.0000  0.0000  0.2173  0.7827
  DIIS coefficients:  0.0000  0.0000  0.0000  0.2173  0.7827
 SCF Error: norm([F,P])=      1.996882248900, max([F,P])=      0.351689813606
 orbitals (Q,E):
 ---------------
 S :1...4            ( 2.00   -12.0035)  ( 2.00    -1.6602)  ( 2.00    -0.1144)  ( 0.00     0.0394)
 P :1...3            ( 6.00    -7.9270)  ( 6.00    -0.7337)  ( 0.00     0.0110)
 D :1...2            (10.00    -3.7226)  ( 0.00    -0.0179)
 F :1...2            ( 6.00     0.0546)  ( 0.00     0.4996)

 CYCLE    7
  SDIIS (wt  0.000): -0.0003  0.0027  0.0034 -0.1433  0.1877  0.9497
 A-DIIS (wt  1.000):  0.0000  0.0000  0.0000  0.0000  0.2386  0.7614
  DIIS coefficients:  0.0000  0.0000  0.0000  0.0000  0.2386  0.7614
 SCF Error: norm([F,P])=      1.073026926214, max([F,P])=      0.175917223830
 orbitals (Q,E):
 ---------------
 S :1...4            ( 2.00   -12.3761)  ( 2.00    -1.8450)  ( 2.00    -0.1471)  ( 0.00     0.0235)
 P :1...3            ( 6.00    -8.2772)  ( 6.00    -0.8711)  ( 0.00    -0.0143)
 D :1...2            (10.00    -4.0402)  ( 0.00    -0.0659)
 F :1...2            ( 6.00    -0.1476)  ( 0.00     0.4356)

 CYCLE    8
  SDIIS (wt  0.006):  0.0002  0.0013 -0.0055 -0.0354  0.0005  0.4439  0.5951
 A-DIIS (wt  0.994):  0.0000  0.0000  0.0000  0.0000  0.0000  0.2905  0.7095
  DIIS coefficients:  0.0000  0.0000 -0.0000 -0.0002  0.0000  0.2915  0.7088
 SCF Error: norm([F,P])=      0.633549262323, max([F,P])=      0.099380513868
 orbitals (Q,E):
 ---------------
 S :1...4            ( 2.00   -12.1838)  ( 2.00    -1.7522)  ( 2.00    -0.1345)  ( 0.00     0.0276)
 P :1...3            ( 6.00    -8.0971)  ( 6.00    -0.8034)  ( 0.00    -0.0069)
 D :1...2            (10.00    -3.8774)  ( 0.00    -0.0440)
 F :1...2            ( 6.00    -0.0431)  ( 0.00     0.4625)

 CYCLE    9
  SDIIS (wt  0.643): -0.0000 -0.0002  0.0010  0.0013 -0.0241 -0.0584  0.2622  0.8181
 A-DIIS (wt  0.357):  0.0000  0.0000  0.0000  0.0000  0.0000  0.0000  0.1275  0.8725
  DIIS coefficients: -0.0000 -0.0001  0.0006  0.0008 -0.0155 -0.0375  0.2141  0.8375
 SCF Error: norm([F,P])=      0.228016478656, max([F,P])=      0.036354447713
 orbitals (Q,E):
 ---------------
 S :1...4            ( 2.00   -12.2487)  ( 2.00    -1.7817)  ( 2.00    -0.1391)  ( 0.00     0.0256)
 P :1...3            ( 6.00    -8.1575)  ( 6.00    -0.8249)  ( 0.00    -0.0103)
 D :1...2            (10.00    -3.9314)  ( 0.00    -0.0510)
 F :1...2            ( 6.00    -0.0764)  ( 0.00     0.4530)

 CYCLE   10
  SDIIS (wt  0.889):  0.0000 -0.0000  0.0000  0.0000  0.0012  0.0120 -0.0780  0.0681  0.9966
 A-DIIS (wt  0.111):  0.0000  0.0000  0.0000  0.0000  0.0000  0.0000  0.0000  0.1223  0.8777
  DIIS coefficients:  0.0000 -0.0000  0.0000  0.0000  0.0010  0.0107 -0.0693  0.0742  0.9834
 SCF Error: norm([F,P])=      0.075328761604, max([F,P])=      0.012012659317
 orbitals (Q,E):
 ---------------
 S :1...4            ( 2.00   -12.2305)  ( 2.00    -1.7730)  ( 2.00    -0.1378)  ( 0.00     0.0261)
 P :1...3            ( 6.00    -8.1404)  ( 6.00    -0.8186)  ( 0.00    -0.0095)
 D :1...2            (10.00    -3.9160)  ( 0.00    -0.0490)
 F :1...2            ( 6.00    -0.0666)  ( 0.00     0.4556)

 CYCLE   11
  SDIIS (wt  0.997):  0.0000  0.0000 -0.0000  0.0000 -0.0001 -0.0026  0.0081 -0.0017  0.9962
 A-DIIS (wt  0.003):  0.0000  0.0000  0.0000  0.0000  0.0000  0.0000  0.0000  0.0000  1.0000
  DIIS coefficients:  0.0000  0.0000 -0.0000  0.0000 -0.0001 -0.0025  0.0081 -0.0016  0.9962
 SCF Error: norm([F,P])=      0.007990077875, max([F,P])=      0.001279335838
 orbitals (Q,E):
 ---------------
 S :1...4            ( 2.00   -12.2323)  ( 2.00    -1.7739)  ( 2.00    -0.1380)  ( 0.00     0.0261)
 P :1...3            ( 6.00    -8.1421)  ( 6.00    -0.8192)  ( 0.00    -0.0096)
 D :1...2            (10.00    -3.9175)  ( 0.00    -0.0492)
 F :1...2            ( 6.00    -0.0676)  ( 0.00     0.4554)

 CYCLE   12
  SDIIS (wt  1.000): -0.0000  0.0000 -0.0000  0.0000  0.0000 -0.0000 -0.0002 -0.0009 -0.0010  1.0021
  DIIS coefficients: -0.0000  0.0000 -0.0000  0.0000  0.0000 -0.0000 -0.0002 -0.0009 -0.0010  1.0021
 SCF Error: norm([F,P])=      0.000046668342, max([F,P])=      0.000007547488
 orbitals (Q,E):
 ---------------
 S :1...4            ( 2.00   -12.2323)  ( 2.00    -1.7739)  ( 2.00    -0.1380)  ( 0.00     0.0261)
 P :1...3            ( 6.00    -8.1421)  ( 6.00    -0.8192)  ( 0.00    -0.0096)
 D :1...2            (10.00    -3.9175)  ( 0.00    -0.0492)
 F :1...2            ( 6.00    -0.0676)  ( 0.00     0.4554)

 CYCLE   13
  SDIIS (wt  1.000):  0.0000  0.0000 -0.0000  0.0000 -0.0001 -0.0012 -0.0485  1.0498
  DIIS coefficients:  0.0000  0.0000 -0.0000  0.0000 -0.0001 -0.0012 -0.0485  1.0498
 SCF Error: norm([F,P])=      0.000000065451, max([F,P])=      0.000000015278
 orbitals (Q,E):
 ---------------
 S :1...4            ( 2.00   -12.2323)  ( 2.00    -1.7739)  ( 2.00    -0.1380)  ( 0.00     0.0261)
 P :1...3            ( 6.00    -8.1421)  ( 6.00    -0.8192)  ( 0.00    -0.0096)
 D :1...2            (10.00    -3.9175)  ( 0.00    -0.0492)
 F :1...2            ( 6.00    -0.0676)  ( 0.00     0.4554)

 CYCLE   14
  SDIIS (wt  1.000): -0.0000 -0.0000 -0.0030  0.1193  0.8837
  DIIS coefficients: -0.0000 -0.0000 -0.0030  0.1193  0.8837
 SCF Error: norm([F,P])=      0.000000013842, max([F,P])=      0.000000003407
 orbitals (Q,E):
 ---------------
 S :1...4            ( 2.00   -12.2323)  ( 2.00    -1.7739)  ( 2.00    -0.1380)  ( 0.00     0.0261)
 P :1...3            ( 6.00    -8.1421)  ( 6.00    -0.8192)  ( 0.00    -0.0096)
 D :1...2            (10.00    -3.9175)  ( 0.00    -0.0492)
 F :1...2            ( 6.00    -0.0676)  ( 0.00     0.4554)

 SCF CONVERGED

 CYCLE   15
1
 ***************************************************************************************************



                                                *******************
                                                *  R E S U L T S  *
                                                *******************
  
 *** Using FIT density in Focky
  SDIIS (wt  1.000):  0.0000 -0.0049  0.0245  0.9804
  DIIS coefficients:  0.0000 -0.0049  0.0245  0.9804
 SCF Error: norm([F,P])=      0.000000000718, max([F,P])=      0.000000000183

 Scaled ZORA Orbital Energies, per Irrep and Spin:
 =================================================
                        Occup              E (au)              E (eV)       Diff (eV) with prev. cycle
                        -----      --------------------        ------       --------------------------
 S
               1        2.000     -0.12232250819939E+02      -332.856              -8.31E-09
               2        2.000     -0.17738748197472E+01       -48.270              -9.23E-09
               3        2.000     -0.13795243010013E+00        -3.754              -3.46E-09
               4        0.000      0.26060803551576E-01         0.709
               5        0.000      0.35052093064145E+00         9.538
               6        0.000      0.18435906679018E+01        50.167
               7        0.000      0.12110426568708E+02       329.541
               8        0.000      0.46824778543762E+04    127416.705
 P
               1        6.000     -0.81420525837623E+01      -221.557              -8.45E-09
               2        6.000     -0.81919132340447E+00       -22.291              -8.46E-09
               3        0.000     -0.95577727298298E-02        -0.260
               4        0.000      0.43577391320537E+00        11.858
               5        0.000      0.20561618864128E+01        55.951
               6        0.000      0.92600350928052E+01       251.978
 D
               1       10.000     -0.39174797096488E+01      -106.600              -8.67E-09
               2        0.000     -0.49218351099550E-01        -1.339
               3        0.000      0.61660189001775E-01         1.678
               4        0.000      0.45955970794862E+00        12.505
               5        0.000      0.36819742283610E+01       100.192
 F
               1        6.000     -0.67569151373411E-01        -1.839              -8.58E-09
               2        0.000      0.45537472547569E+00        12.391
               3        0.000      0.29283540101320E+01        79.685


 Partially Occupied:
               1 F                -0.67569151373411E-01
  
 HOMO :        3 S                -0.13795243010013E+00
 LUMO :        2 D                -0.49218351099550E-01
  


 Orbital Energies, all Irreps
 ========================================

 Irrep        no.  (spin)   Occup              E (au)                E (eV)
 ---------------------------------------------------------------------------
 S             1             2.00       -0.12232250819939E+02      -332.8565
 P             1             6.00       -0.81420525837623E+01      -221.5565
 D             1            10.00       -0.39174797096488E+01      -106.6000
 S             2             2.00       -0.17738748197472E+01       -48.2696
 P             2             6.00       -0.81919132340447E+00       -22.2913
 S             3             2.00       -0.13795243010013E+00        -3.7539
 F             1             6.00       -0.67569151373411E-01        -1.8387
 D             2             0.00       -0.49218351099550E-01        -1.3393
 P             3             0.00       -0.95577727298298E-02        -0.2601
 S             4             0.00        0.26060803551576E-01         0.7092
 D             3             0.00        0.61660189001775E-01         1.6779
 S             5             0.00        0.35052093064145E+00         9.5382
 P             4             0.00        0.43577391320537E+00        11.8580
 F             2             0.00        0.45537472547569E+00        12.3914
 D             4             0.00        0.45955970794862E+00        12.5053
 S             6             0.00        0.18435906679018E+01        50.1667
 P             5             0.00        0.20561618864128E+01        55.9510
 F             3             0.00        0.29283540101320E+01        79.6846
 D             5             0.00        0.36819742283610E+01       100.1916
 P             6             0.00        0.92600350928052E+01       251.9784
 S             7             0.00        0.12110426568708E+02       329.5415
 S             8             0.00        0.46824778543762E+04    127416.7054


 Scaled ZORA Orbital Energies of the Core Orbitals:
 ==================================================

 (Note that the atoms are grouped by atomtype, see the labels, and may hence NOT be in input order)

 AtomType  Orbital  Atom                   E (au)                        E (eV)
 --------  -------  ----           --------------------        ----------------
 Pu          1S        1          -0.44764841754917E+04             -121811.332
             2S        1          -0.84332988984344E+03              -22948.174
             3S        1          -0.21459108789916E+03               -5839.321
             4S        1          -0.55424947744293E+02               -1508.190
             2P        1          -0.69471276804759E+03              -18904.096
             3P        1          -0.17352457633458E+03               -4721.844
             4P        1          -0.42042501899653E+02               -1144.035
             3D        1          -0.13956461621623E+03               -3797.746
             4D        1          -0.29104340893044E+02                -791.969
             4F        1          -0.15402004460046E+02                -419.110



 =======================================
 M U L L I K E N   P O P U L A T I O N S
 =======================================
  
 The survey below gives for each atom:
 a) the total charge (Z minus electrons)
 b) the net spin polarization (nr of electrons spin-A minus spin-B)
 c) for each spin the atomic electron valence density (integrated) per L-value.

 Atom              Charge    Spin density          S         P         D         F
 ----              ------    ------------       ------    ------    ------    ------
 1 Pu             -0.0000                       6.0000   12.0000   10.0000    6.0000

 Populations of individual BAS functions
 ----------------------------------------
 1 Pu          -0.0039 -0.0047  0.0061 -0.0453 -0.0019 -0.0019 -0.0019 -0.0046 -0.0046 -0.0046
                0.0394  0.0394  0.0394  0.0100  0.0149  0.0149  0.0100  0.0149  0.0100  0.0272
                0.0408  0.0408  0.0272  0.0408  0.0272  0.0100  0.0200  0.0200  0.0200  0.0250
                0.0200  0.0100  0.0200  0.0200  0.0100  1.2010  0.9166  0.0006  1.4277  0.5722
                0.6951  1.0267  0.2080  0.9153  0.9153  0.9153  1.4354  1.4354  1.4354  0.5843
                0.5843  0.5843  0.8942  0.8942  0.8942  0.1351  0.1351  0.1351  0.0041  0.0061
                0.0061  0.0041  0.0061  0.0041  0.9055  1.3582  1.3582  0.9055  1.3582  0.9055
                0.3869  0.5804  0.5804  0.3869  0.5804  0.3869 -0.0002 -0.0004 -0.0004 -0.0002
               -0.0004 -0.0002  0.0000  0.0000  0.0000  0.0000  0.0000  0.0000  0.1200  0.2399
                0.2399  0.2399  0.2999  0.2399  0.1200  0.2399  0.2399  0.1200  0.1781  0.3562
                0.3562  0.3562  0.4452  0.3562  0.1781  0.3562  0.3562  0.1781  0.0348  0.0696
                0.0696  0.0696  0.0870  0.0696  0.0348  0.0696  0.0696  0.0348  0.0028  0.0028
                0.0028

 Gross Charges per Atom (Z minus electrons)
 ==========================================
            -0.0000
 Net Total: -0.00000000



 =======================================================================
 Electrostatic potential at the Nuclei due to electrons and other nuclei
 =======================================================================
  
         Atom                  Potential
         ----                  ---------
     1)   Pu                818.91131479
 
 
 ========================
 No memory problems found
 ========================
 
 Maximum number of active allocate calls:         487
 
 *******************************************************************************

                             A D F   E X I T
 NORMAL TERMINATION



 =================
 Timing Statistics
 =================
  
 Total Used :                     CPU=        3.35      System=        0.11     Elapsed=        3.48

 Calls  Section                     ( Mean, Percentage )
 ---------------------------------------------------------------------------------------------------
     3  ><      ................      0.00    0.29             0.00    0.98             0.00    0.32
     1  INIT    ................      0.14    4.24             0.01    6.38             0.15    4.33
     1  GEOMET  ................      0.04    1.05             0.01    7.52             0.04    1.25
     1  INPUTA  ................      0.01    0.35             0.00    2.81             0.01    0.43
     1  MAINSY  ................      0.06    1.71             0.01    5.32             0.06    1.84
     1  SYMFIT  ................      0.00    0.11             0.00    0.88             0.00    0.14
     1  CORORT  ................      0.01    0.16             0.00    0.10             0.01    0.16
     1  SYMORB  ................      0.00    0.12             0.00    0.00             0.00    0.12
     1  CLSMAT  ................      0.02    0.67             0.00    0.06             0.02    0.65
     1  ORTHON  ................      0.02    0.45             0.00    1.06             0.02    0.48
     1  GENPT   ................      0.07    2.13             0.00    2.38             0.07    2.15
     1  PTBAS   ................      0.02    0.62             0.00    0.10             0.02    0.61
    15  FOCKY   ................      0.17   78.12             0.00   50.74             0.18   77.10
    15  FOCKTR  ................      0.00    0.71             0.00    1.67             0.00    0.74
    15  SDIIS   ................      0.00    2.16             0.00    5.42             0.01    2.34
     1  COREPS  ................      0.17    5.05             0.01    6.11             0.18    5.07
     1  POPAN   ................      0.01    0.44             0.00    0.28             0.02    0.44
     1  DEBYE   ................      0.01    0.25             0.00    0.00             0.01    0.25
     1  EXIT PROCEDURE .........      0.05    1.36             0.01    8.19             0.05    1.58


 Currently Open Files (EXIT00)
 ====================

 Unit    Access Format  Status   Type       Ident (file)
 -------------------------------------------------------
   3      SEQ    FORM   TRANSP  NORMAL      LOGFILE
                                          ( logfile )

 ***************************************************************************************************
 (LOGFILE)
 <Jun29-2020> <15:31:55>  DIRAC 2019.304  RunTime: Jun29-2020 15:31:55  Nodes: 1  Procs: 1
 <Jun29-2020> <15:31:57>  NORMAL TERMINATION
 <Jun29-2020> <15:31:57>  END
 <Jun29-2020> <15:31:57>  ADF 2019.304  RunTime: Jun29-2020 15:31:57  Nodes: 1  Procs: 1
 <Jun29-2020> <15:31:57>  Plutonium (TZP, 4f frozen)
 <Jun29-2020> <15:31:57>  RunType   : CREATE
 <Jun29-2020> <15:31:57>  Net Charge: 0 (Nuclei minus Electrons)
 <Jun29-2020> <15:31:57>  Symmetry  : ATOM
  Coordinates
    Atom         X           Y           Z   (Angstrom)
    1.Pu        0.000000    0.000000    0.000000
 <Jun29-2020> <15:31:57>  >>>> CORORT
 <Jun29-2020> <15:31:57>  >>>> CLSMAT
 <Jun29-2020> <15:31:57>  >>>> ORTHON
 <Jun29-2020> <15:31:57>  >>>> GENPT
 <Jun29-2020> <15:31:57>  Block Length=  94
 <Jun29-2020> <15:31:57>  >>>> PTBAS
 <Jun29-2020> <15:31:57>  >>>> CYCLE
 <Jun29-2020> <15:31:58>              |Error|         MaxErr       Wt(A-DIIS)
 <Jun29-2020> <15:31:58>      1      0.00000000      0.00000000
 <Jun29-2020> <15:31:58>      2     31.15781784      9.32082916    100.0
 <Jun29-2020> <15:31:58>      3     20.03195815      4.09659388    100.0
 <Jun29-2020> <15:31:58>      4      9.58683145      1.92763499    100.0
 <Jun29-2020> <15:31:58>      5      4.75598782      0.83138479    100.0
 <Jun29-2020> <15:31:58>      6      1.99688225      0.35168981    100.0
 <Jun29-2020> <15:31:59>      7      1.07302693      0.17591722    100.0
 <Jun29-2020> <15:31:59>      8      0.63354926      0.09938051     99.4
 <Jun29-2020> <15:31:59>      9      0.22801648      0.03635445     35.7
 <Jun29-2020> <15:31:59>     10      0.07532876      0.01201266     11.1
 <Jun29-2020> <15:31:59>     11      0.00799008      0.00127934      0.3
 <Jun29-2020> <15:31:59>     12      0.00004667      0.00000755      0.0
 <Jun29-2020> <15:32:00>     13      0.00000007      0.00000002      0.0
 <Jun29-2020> <15:32:00>     14      0.00000001      0.00000000      0.0
 <Jun29-2020> <15:32:00>  SCF converged
 <Jun29-2020> <15:32:00>     15      0.00000000      0.00000000      0.0
 <Jun29-2020> <15:32:00>  >>>> POPAN
 <Jun29-2020> <15:32:00>  >>>> DEBYE
 <Jun29-2020> <15:32:00>  NORMAL TERMINATION
 <Jun29-2020> <15:32:00>  END
NORMAL TERMINATION

 *******************************************************************************
 *                                                                             *
 *  --------------------------------                                           *
 *   Amsterdam Modeling Suite (AMS)              2019.304                      *
 *  --------------------------------                                           *
 *                                               r84175 2020-05-08             *
 *                                                                             *
 *                                                                             *
 *                            =====================                            *
 *                            |                   |                            *
 *                            |     D I R A C     |                            *
 *                            |                   |                            *
 *                            =====================                            *
 *                                                                             *
 *                                                                             *
 *   Online information and documentation:  https://www.scm.com/support/       *
 *   E-mail:  support@scm.com   info@scm.com                                   *
 *                                                                             *
 *   Scientific publications using AMS results must be properly referenced     *
 *   See the User Manuals (or the web site) for recommended citations          *
 *   The terms and conditions of the End User License Agreement apply to       *
 *   the use of AMS, https://www.scm.com/license-terms/                        *
 *                                                                             *
 **********************  x86_64_linux_intel / intelmpi  ************************
 
 Licensed to: Prof. Pere Miro / University of South Dakota, Department of Chemistry / Vermillion / SD / USA
 SCM User ID: u19501
  
 DIRAC 2019.304  RunTime: Jun29-2020 15:32:00  Nodes: 1  Procs: 1

 Temporary files are created in /scratch/job_849606/kid_0.1830740947 (0x58465342)

1
 NITROGEN ATOM 1s CORE RELATIVISTIC, Point Nuc, A and c from 
 N J RN H ZN XION ANUC CLIGHT
 5000    4100.00000000197.36710137  7.00000000  0.00000000   14.003074  0.1370360E+03
  PH   PHI     EPS        DEL        DELRVR
  0.30  0.30     2500.00  0.00001000  0.00001000
 IDIRC  NC1  NDEBU NPRIN  IPUN IRCOR IWCOR
   1   300     0     0     0     0     1
   XALPHA      XLATTER      RNUC
  0.70000000  0.00000000  0.00000000 Point Charge
   XN   XL   XJ      XE          XZ      XDELL
  1.0  0.0  0.5      -5.000       2.000     0.00000
  2.0  0.0  0.5      -1.000       2.000     0.00000
  2.0  1.0  0.5      -1.000       2.000     0.00000
  2.0  1.0  1.5      -1.000       1.000     0.00000
 ICORP=  0  NPCL=  0  DEMP=0.00  PEPS=0.000000
 R(1)=  0.1000000E-08 D=  0.1005080E+01 RNUC=  0.0000000E+00
 converged at cycle   25  DENSITY AVERAGING    0.3000
  MAXIMUM ERROR IN R.V(R) IS   0.97905511E-05
 Q,EY,EV,EZ,ESUM,ETOT,RHO  0.700000E+01 -0.796419E+01 -0.840156E+02 -0.127663E+03 -0.300692E+02 -0.538837E+02  0.270066E-14


 DIRAC CALCULATION
1                    NITROGEN ATOM 1s CORE RELATIVISTIC, Point Nuc, A and c from libtc


 EXCHANGE COEFFICIENT=  0.7000000           TAIL CORRECTION=  0.           NUCLEAR RADIUS=  0.000E+00
0                       ORBITAL    N    L    J     ELECTRONS     EIGENVALUE                DELTA OF EIGENV.

                          1S1/2  1.0  0.0  0.5     2.000       -0.1403720E+02                 0.4993583E-04
                          2S1/2  2.0  0.0  0.5     2.000       -0.6456810E+00                 0.6544571E-05
                          2P1/2  2.0  1.0  0.5     2.000       -0.2347008E+00                 0.5687228E-05
                          2P3/2  2.0  1.0  1.5     1.000       -0.2339893E+00                 0.5679256E-05


                                        NUCLEAR CHARGE=    7.000000
                            INTEGRAL OF CHARGE DENSITY=    7.000000
                           SUM OF THE ORBITAL ENERGIES=    -30.0692
                                          TOTAL ENERGY=    -53.8837
                                        KINETIC ENERGY=     53.9465
                             NUCLEAR ATTRACTION ENERGY=   -127.6627
                             ELECTRON REPULSION ENERGY=     25.8056
                                       EXCHANGE ENERGY=     -5.9731

 *******************************************************************************

                             D I R A C   E X I T
 NORMAL TERMINATION



 =================
 Timing Statistics
 =================
  
 Total Used :                     CPU=        0.19      System=        0.01     Elapsed=        0.20

 Calls  Section                     ( Mean, Percentage )
 ---------------------------------------------------------------------------------------------------
     2  ><      ................      0.00    0.00             0.00    0.10             0.00    0.01
     1  EXIT PROCEDURE .........      0.19  100.00             0.01   99.90             0.20   99.99


 Currently Open Files (EXIT00)
 ====================

 Unit    Access Format  Status   Type       Ident (file)
 -------------------------------------------------------
   3      SEQ    FORM   TRANSP  NORMAL      LOGFILE
                                          ( logfile )
NORMAL TERMINATION
 
Create N   file=TZP-N.1s
XC
GGA PBE
DISPERSION Grimme3 BJDAMP
End
relativistic ZORA
Corepotentials t12.rel
End

 *******************************************************************************
 *                                                                             *
 *  --------------------------------                                           *
 *   Amsterdam Modeling Suite (AMS)              2019.304                      *
 *  --------------------------------                                           *
 *                                               r84175 2020-05-08             *
 *                                                                             *
 *                                                                             *
 *                              =================                              *
 *                              |               |                              *
 *                              |     A D F     |                              *
 *                              |               |                              *
 *                              =================                              *
 *                                                                             *
 *                                                                             *
 *   Online information and documentation:  https://www.scm.com/support/       *
 *   E-mail:  support@scm.com   info@scm.com                                   *
 *                                                                             *
 *   Scientific publications using AMS results must be properly referenced     *
 *   See the User Manuals (or the web site) for recommended citations          *
 *   The terms and conditions of the End User License Agreement apply to       *
 *   the use of AMS, https://www.scm.com/license-terms/                        *
 *                                                                             *
 **********************  x86_64_linux_intel / intelmpi  ************************
 
 Licensed to: Prof. Pere Miro / University of South Dakota, Department of Chemistry / Vermillion / SD / USA
 SCM User ID: u19501
  
 ADF 2019.304  RunTime: Jun29-2020 15:32:01  Nodes: 1  Procs: 1

 Temporary files are created in /scratch/job_849606/kid_0.1156586747 (0x58465342)

 Nitrogen (TZP, 1s frozen)



 ===========================
 A T T A C H E D   F I L E S
 ===========================
  
 CREATE - Data File:    TZP-N.1s
                        Nitrogen (TZP, 1s frozen)
 Core Potentials:
         file : t12.rel



 ===============================
 M O D E L   P A R A M E T E R S
 ===============================
  
 DENSITY FUNCTIONAL POTENTIAL (scf)
    LDA:                               PW92                                    == Not Default ==
    Gradient Corrections:              PBEc PBEx                               == Not Default ==

 SPIN  (restricted / unrestr.)
    Molecule:                          Restricted                               

 OTHER ASPECTS
    Relativistic Corrections:          scalar (ZORA,MAPA)                      == Not Default ==

    Nuclear Charge Density Model:      Point Charge Nuclei                      
    Core Treatment:                    Frozen Orbital(s)                        

    Hyperfine or Zeeman Interaction:   ---                                      

 Settings for Grimme D3 dispersion correction

      damping                        BJ
      s6                          1.000
      s8                          0.788
      a1                          0.429
      a2                          4.441

 Other (technical) parameters

      alpha                      14.000
      version                         4
 



 =====================================
 S Y M M E T R Y ,   E L E C T R O N S
 =====================================
  
 Symmetry: ATOM

 Irreducible Representations, including subspecies
 -------------------------------------------------
 S
 P:x  P:y  P:z
 D:z2  D:x2-y2  D:xy  D:xz  D:yz
 F:z3  F:z  F:xyz  F:z2x  F:z2y  F:x  F:y


 Configuration of Valence Electrons
 ==================================

          Occupation Numbers
          -------------------------------------------------
 S        2
 P        3
 D        0
 F        0
          -------------------------------------------------

 Total:   5

 Net Charge: 0 (Nuclei minus Electrons)

 Preset values for MO occupations will be applied through SCF cycle no. 1000000
 Thereafter, the program will assign electrons to MOs that are spatially
 similar to the occupied MOs in a "reference" cycle ("KeepOrbitals").
 The reference cycle is always the PREVIOUS cycle: it will evolve with
 the SCF procedure.



 ================================
 (Slater-type)  F U N C T I O N S  ***  (Basis and Fit)  ***
 ================================
  

 Atom Type    1  (N)
 ==============

 Valence Basis Sets:   8
 -----------------------
   1 S    6.380000
   2 S    1.500000
   2 S    2.500000
   2 S    5.150000
   2 P    1.000000
   2 P    1.880000
   2 P    3.680000
   3 D    2.200000

 Frozen Core Shells
 ------------------
    S:  1


 BAS: List of all Elementary Cartesian Basis Functions
 =====================================================

 The numbering in the list below (to the right of the function characteristics) is referred
 to in print-outs of MO eigenvectors and Mulliken populations in the BAS representation
 (as contrasted to the SFO representation).

 Notes:
 1. The functions are characterized by a polynomial prefactor (powers of x,y,z and r) and
    an exponential decay factor alpha.
 2. Since the basis sets are specific for an atom TYPE, the individual functions occur on
    all atoms of that type.
 3. The word 'Core' in the left margin signals that it is a Core Function (CF) : not a
    degree of freedom in the valence set, but only used to ensure orthogonalization of
    the other valence basis functions on the frozen Core Orbitals.


 (power of) X  Y  Z  R     Alpha  on Atom
            ==========     =====     ==========

 N                                    1
                                  ---------------------------------------------------------------------------
    Core    0  0  0  0     6.380      1
            0  0  0  1     1.500      2
            0  0  0  1     2.500      3
            0  0  0  1     5.150      4
            1  0  0  0     1.000      5
            0  1  0  0     1.000      6
            0  0  1  0     1.000      7
            1  0  0  0     1.880      8
            0  1  0  0     1.880      9
            0  0  1  0     1.880     10
            1  0  0  0     3.680     11
            0  1  0  0     3.680     12
            0  0  1  0     3.680     13
            2  0  0  0     2.200     14
            1  1  0  0     2.200     15
            1  0  1  0     2.200     16
            0  2  0  0     2.200     17
            0  1  1  0     2.200     18
            0  0  2  0     2.200     19

 Total number of charge fitting functions (nprimf)        82
 Total number of Cartesian basis functions (naos)         19
 Total number of Cartesian core functions  (ncos)          1



 BAS: List of all Elementary Cartesian Basis Functions
 =====================================================

 The numbering in the list below (to the right of the function characteristics) is referred
 to in print-outs of MO eigenvectors and Mulliken populations in the BAS representation
 (as contrasted to the SFO representation).

 Notes:
 1. The functions are characterized by a polynomial prefactor (powers of x,y,z and r) and
    an exponential decay factor alpha.
 2. Since the basis sets are specific for an atom TYPE, the individual functions occur on
    all atoms of that type.
 3. The word 'Core' in the left margin signals that it is a Core Function (CF) : not a
    degree of freedom in the valence set, but only used to ensure orthogonalization of
    the other valence basis functions on the frozen Core Orbitals.


 (power of) X  Y  Z  R     Alpha  on Atom
            ==========     =====     ==========

 N                                    1
                                  ---------------------------------------------------------------------------
    Core    0  0  0  0     6.380      1
            0  0  0  1     1.500      2
            0  0  0  1     2.500      3
            0  0  0  1     5.150      4
            1  0  0  0     1.000      5
            0  1  0  0     1.000      6
            0  0  1  0     1.000      7
            1  0  0  0     1.880      8
            0  1  0  0     1.880      9
            0  0  1  0     1.880     10
            1  0  0  0     3.680     11
            0  1  0  0     3.680     12
            0  0  1  0     3.680     13
            2  0  0  0     2.200     14
            1  1  0  0     2.200     15
            1  0  1  0     2.200     16
            0  2  0  0     2.200     17
            0  1  1  0     2.200     18
            0  0  2  0     2.200     19
1
 ***************************************************************************************************



                                              ***********************
                                              *  T E C H N I C A L  *
                                              ***********************
  



 =============================================================
 P A R A L L E L I Z A T I O N  and  V E C T O R I Z A T I O N
 =============================================================
  
 Nr of parallel processes:                                1
 Maximum vector length in NumInt loops:                 128



 =====================
 S C F   U P D A T E S
 =====================
  
 Max. nr. of cycles:                               300
 Convergence criterion:                              0.0000000100
   secondary criterion:                              0.0000000100

 Mix parameter (when DIIS does not apply):           0.2000000000
 Special mix parameter for the first cycle:          1.0000000000
 Mixed ADIIS+SDIIS will be used                  
    Max number of expansion vectors:                10
    Pure ADIIS when Max([F,P]) is above              0.1000000000
    Pure SDIIS when Max([F,P]) is below              0.0010000000
 Automatic ElectronSmearing (in case of problematic SCF convergence) disabled



 =================
 P R E C I S I O N  ***  (General: NumInt, NeglectFunctionTails, ...)  ***
 =================
  

 NumInt:           Target precision:                12.0000000000
 -------           Initial precision:               10.0000000000
                   Min. precision (optimization):   10.0000000000

 Neglect Functions:          Basis functions:        0.1000000000E-13
 ------------------          Fit functions:          0.1000000000E-13



 ===========================
 L I N E A R   S C A L I N G
 ===========================
  

 Cut-off radii density fit:                        0.1000000000E-97
 Overlap cut-off criterion AO matrix elements:     0.1000000000E-97
 Cut-offs for Coulomb potential and fitted density:0.1000000000E-97
 Cut-off criterion for Coulomb multipole terms:    0.1000000000E-97
 Progressive Convergence parameter:                 0.000000000    
1
 ***************************************************************************************************



                                            ***************************
                                            *  C O M P U T A T I O N  *
                                            ***************************
  

 Number of elements of the density matrix on this node (used, total):       190       190



 ===========================================
 Numerical Integration : Fuzzy Cells (Becke)
 ===========================================
  
 Becke grid quality: VERYGOOD       
  
 Lebedev angular grid order:             min:  13 max:  41
 Nr. of radial points:                   min:  68 max:  68

 Total nr. of points:         68
 Nr. of blocks:                1
 Block length:                68
 Nr. of dummy points:          0


 Test of Precision of the Numerical Integration Grid
 ===================================================

 Integral of the Total Core Density:                   2.00000004779027
 Relative Error:                                       2.390E-08



 ========================
 Density Fitting (zlmFit)
 ========================
  
 ZlmFit Fit Quality: VERYGOOD       
  
 Max L-expansion:                        min:   0 max:   0
 Nr. of radial interpolation points:     min: 160 max: 160



 =====
 S C F  ***  ScaSCF  ***
 =====
  

 CYCLE    1
 SCF Error: norm([F,P])=      0.000000000000, max([F,P])=      0.000000000000
 orbitals (Q,E):
 ---------------
 S :1...3            ( 2.00    -3.8409)  ( 0.00    -1.5644)  ( 0.00     8.5048)
 P :1...3            ( 3.00    -3.5351)  ( 0.00    -1.4204)  ( 0.00     0.1191)
 D :1...1            ( 0.00    -1.3270)

 CYCLE    2
 SCF Error: norm([F,P])=      2.833197771698, max([F,P])=      1.837988556476
 orbitals (Q,E):
 ---------------
 S :1...2            ( 2.00    -0.1742)  ( 0.00     1.0772)
 P :1...2            ( 3.00     0.1254)  ( 0.00     0.7151)
 D :1...1            ( 0.00     1.6599)

 CYCLE    3
  SDIIS (wt  0.000):  0.3273  0.6727
 A-DIIS (wt  1.000):  0.4087  0.5913
  DIIS coefficients:  0.4087  0.5913
 SCF Error: norm([F,P])=      1.576436808644, max([F,P])=      1.190496268513
 orbitals (Q,E):
 ---------------
 S :1...2            ( 2.00    -0.8624)  ( 0.00     0.4802)
 P :1...2            ( 3.00    -0.4339)  ( 0.00     0.2173)
 D :1...1            ( 0.00     1.0855)

 CYCLE    4
  SDIIS (wt  0.000):  0.1441  0.8559
 A-DIIS (wt  1.000):  0.0000  1.0000
  DIIS coefficients:  0.0000  1.0000
 SCF Error: norm([F,P])=      0.274647640829, max([F,P])=      0.177936058975
 orbitals (Q,E):
 ---------------
 S :1...2            ( 2.00    -0.5781)  ( 0.00     0.6716)
 P :1...2            ( 3.00    -0.1636)  ( 0.00     0.3412)
 D :1...1            ( 0.00     1.3249)

 CYCLE    5
  SDIIS (wt  0.000): -0.0024  0.5316  0.4708
 A-DIIS (wt  1.000):  0.0000  0.5288  0.4712
  DIIS coefficients:  0.0000  0.5288  0.4712
 SCF Error: norm([F,P])=      0.317722153740, max([F,P])=      0.218767092504
 orbitals (Q,E):
 ---------------
 S :1...2            ( 2.00    -0.6836)  ( 0.00     0.5961)
 P :1...2            ( 3.00    -0.2607)  ( 0.00     0.2867)
 D :1...1            ( 0.00     1.2424)

 CYCLE    6
  SDIIS (wt  0.987):  0.0009  0.0005 -0.0142  1.0128
 A-DIIS (wt  0.013):  0.0000  0.0000  0.0000  1.0000
  DIIS coefficients:  0.0009  0.0005 -0.0140  1.0126
 SCF Error: norm([F,P])=      0.003285554382, max([F,P])=      0.002300302063
 orbitals (Q,E):
 ---------------
 S :1...2            ( 2.00    -0.6843)  ( 0.00     0.5956)
 P :1...2            ( 3.00    -0.2614)  ( 0.00     0.2859)
 D :1...1            ( 0.00     1.2420)

 CYCLE    7
  SDIIS (wt  1.000): -0.0000  0.0006  0.0003  0.0085  0.9906
  DIIS coefficients: -0.0000  0.0006  0.0003  0.0085  0.9906
 SCF Error: norm([F,P])=      0.000067659588, max([F,P])=      0.000037679289
 orbitals (Q,E):
 ---------------
 S :1...2            ( 2.00    -0.6843)  ( 0.00     0.5956)
 P :1...2            ( 3.00    -0.2615)  ( 0.00     0.2859)
 D :1...1            ( 0.00     1.2420)

 CYCLE    8
  SDIIS (wt  1.000):  0.0000 -0.0000 -0.0011  0.0201  0.9810
  DIIS coefficients:  0.0000 -0.0000 -0.0011  0.0201  0.9810
 SCF Error: norm([F,P])=      0.000009603269, max([F,P])=      0.000006647777
 orbitals (Q,E):
 ---------------
 S :1...2            ( 2.00    -0.6843)  ( 0.00     0.5956)
 P :1...2            ( 3.00    -0.2615)  ( 0.00     0.2859)
 D :1...1            ( 0.00     1.2420)

 CYCLE    9
  SDIIS (wt  1.000): -0.0000 -0.0000 -0.0020  1.0020
  DIIS coefficients: -0.0000 -0.0000 -0.0020  1.0020
 SCF Error: norm([F,P])=      0.000000042469, max([F,P])=      0.000000029453
 orbitals (Q,E):
 ---------------
 S :1...2            ( 2.00    -0.6843)  ( 0.00     0.5956)
 P :1...2            ( 3.00    -0.2615)  ( 0.00     0.2859)
 D :1...1            ( 0.00     1.2420)

 CYCLE   10
  SDIIS (wt  1.000):  0.0000 -0.0003  1.0003
  DIIS coefficients:  0.0000 -0.0003  1.0003
 SCF Error: norm([F,P])=      0.000000000064, max([F,P])=      0.000000000044
 orbitals (Q,E):
 ---------------
 S :1...2            ( 2.00    -0.6843)  ( 0.00     0.5956)
 P :1...2            ( 3.00    -0.2615)  ( 0.00     0.2859)
 D :1...1            ( 0.00     1.2420)

 SCF CONVERGED

 CYCLE   11
1
 ***************************************************************************************************



                                                *******************
                                                *  R E S U L T S  *
                                                *******************
  
 *** Using FIT density in Focky
  SDIIS (wt  1.000):  0.0000  0.0066  0.9934
  DIIS coefficients:  0.0000  0.0066  0.9934
 SCF Error: norm([F,P])=      0.000000000000, max([F,P])=      0.000000000000

 Scaled ZORA Orbital Energies, per Irrep and Spin:
 =================================================
                        Occup              E (au)              E (eV)       Diff (eV) with prev. cycle
                        -----      --------------------        ------       --------------------------
 S
               1        2.000     -0.68434328667191E+00       -18.622              -3.76E-12
               2        0.000      0.59557427948292E+00        16.206
               3        0.000      0.12424128894896E+02       338.078
 P
               1        3.000     -0.26146847042514E+00        -7.115              -3.60E-12
               2        0.000      0.28585406994462E+00         7.778
               3        0.000      0.32885122261216E+01        89.485
 D
               1        0.000      0.12419750122773E+01        33.796


 Partially Occupied:
               1 P                -0.26146847042514E+00
  
 HOMO :        1 S                -0.68434328667191E+00
 LUMO :        2 P                 0.28585406994462E+00
  


 Orbital Energies, all Irreps
 ========================================

 Irrep        no.  (spin)   Occup              E (au)                E (eV)
 ---------------------------------------------------------------------------
 S             1             2.00       -0.68434328667191E+00       -18.6219
 P             1             3.00       -0.26146847042514E+00        -7.1149
 P             2             0.00        0.28585406994462E+00         7.7785
 S             2             0.00        0.59557427948292E+00        16.2064
 D             1             0.00        0.12419750122773E+01        33.7959
 P             3             0.00        0.32885122261216E+01        89.4850
 S             3             0.00        0.12424128894896E+02       338.0777


 Scaled ZORA Orbital Energies of the Core Orbitals:
 ==================================================

 (Note that the atoms are grouped by atomtype, see the labels, and may hence NOT be in input order)

 AtomType  Orbital  Atom                   E (au)                        E (eV)
 --------  -------  ----           --------------------        ----------------
 N           1S        1          -0.14150350397423E+02                -385.051



 =======================================
 M U L L I K E N   P O P U L A T I O N S
 =======================================
  
 The survey below gives for each atom:
 a) the total charge (Z minus electrons)
 b) the net spin polarization (nr of electrons spin-A minus spin-B)
 c) for each spin the atomic electron valence density (integrated) per L-value.

 Atom              Charge    Spin density          S         P         D         F
 ----              ------    ------------       ------    ------    ------    ------
 1 N              -0.0000                       2.0000    3.0000    0.0000    0.0000

 Populations of individual BAS functions
 ----------------------------------------
 1 N            0.0006  0.9046  1.1474 -0.0527  0.2943  0.2943  0.2943  0.5648  0.5648  0.5648
                0.1410  0.1410  0.1410  0.0000  0.0000  0.0000  0.0000  0.0000  0.0000

 Gross Charges per Atom (Z minus electrons)
 ==========================================
            -0.0000
 Net Total: -0.00000000



 =======================================================================
 Electrostatic potential at the Nuclei due to electrons and other nuclei
 =======================================================================
  
         Atom                  Potential
         ----                  ---------
     1)   N                  18.24635171
 
 
 ========================
 No memory problems found
 ========================
 
 Maximum number of active allocate calls:         389
 
 *******************************************************************************

                             A D F   E X I T
 NORMAL TERMINATION



 =================
 Timing Statistics
 =================
  
 Total Used :                     CPU=        1.04      System=        0.05     Elapsed=        1.11

 Calls  Section                     ( Mean, Percentage )
[...]
 <Jun29-2020> <16:05:51>  energy change                       0.00005246     0.00100000    T
 <Jun29-2020> <16:05:51>  constrained gradient max            0.00171285     0.00100000    F
 <Jun29-2020> <16:05:51>  constrained gradient rms            0.00051074     0.00066667    T
 <Jun29-2020> <16:05:51>  gradient max                        0.00171285
 <Jun29-2020> <16:05:51>  gradient rms                        0.00051074
 <Jun29-2020> <16:05:51>  cart. step max                      0.03699351     0.01000000    F
 <Jun29-2020> <16:05:51>  cart. step rms                      0.01242292     0.00666667    F
  Coordinates in Geometry Cycle 23
    Atom         X           Y           Z   (Angstrom)
    1.Pu       -1.794288    0.969965   -2.880960
    2.Pu        1.794288   -0.969965   -2.880960
    3.Cl        0.342015   -3.204893   -3.211288
    4.Cl        2.965188    1.083850   -1.526898
    5.Cl       -0.342015    3.204893   -3.211288
    6.Cl       -2.965188   -1.083850   -1.526898
    7.N         1.773732    0.241679   -5.571245
    8.N         4.343204   -2.123788   -3.972596
    9.N         2.269797   -2.077393   -0.160620
   10.N        -1.773732   -0.241679   -5.571245
   11.N        -4.343204    2.123788   -3.972596
   12.N        -2.269797    2.077393   -0.160620
   13.O        -1.197378    1.438797   -0.475579
   14.O        -3.144277    2.204421   -1.095243
   15.O        -2.447052    2.539880    0.971407
   16.O        -1.434408    0.987727   -5.345134
   17.O        -2.140024   -0.910513   -4.540688
   18.O        -1.739341   -0.728447   -6.703392
   19.O        -3.271795    2.828067   -3.876916
   20.O        -4.229152    0.889752   -3.620004
   21.O        -5.412045    2.597418   -4.371328
   22.O         0.000000    0.000000   -2.613081
   23.O         1.197378   -1.438797   -0.475579
   24.O         3.144277   -2.204421   -1.095243
   25.O         2.447052   -2.539880    0.971407
   26.O         1.434408   -0.987727   -5.345134
   27.O         2.140024    0.910513   -4.540688
   28.O         1.739341    0.728447   -6.703392
   29.O         3.271795   -2.828067   -3.876916
   30.O         4.229152   -0.889752   -3.620004
   31.O         5.412045   -2.597418   -4.371328
 <Jun29-2020> <16:05:51>  >>>> CORORT
 <Jun29-2020> <16:05:52>  >>>> CLSMAT
 <Jun29-2020> <16:05:52>  >>>> ORTHON
 <Jun29-2020> <16:05:52>  >>>> GENPT
 <Jun29-2020> <16:05:52>  Block Length= 128
 <Jun29-2020> <16:05:52>  >>>> PTBAS
 <Jun29-2020> <16:05:55>  combining surface points...
 <Jun29-2020> <16:05:55>  combining surface points...
 <Jun29-2020> <16:05:55>  combining surface points...
 <Jun29-2020> <16:05:55>  >>>> CYCLE
 <Jun29-2020> <16:05:58>              |Error|         MaxErr       Wt(A-DIIS)
 <Jun29-2020> <16:05:58>      1      0.22037011      0.01917590
 <Jun29-2020> <16:06:01>      2      0.55635582      0.02892655    100.0
 <Jun29-2020> <16:06:04>      3      0.16948155      0.00563424    100.0
 <Jun29-2020> <16:06:07>      4      0.23510421      0.00803459    100.0
 <Jun29-2020> <16:06:11>      5      0.94042876      0.04573674    100.0
 <Jun29-2020> <16:06:14>      6      0.26627551      0.01116533    100.0
 <Jun29-2020> <16:06:17>      7      0.16181151      0.01544843     14.6
 <Jun29-2020> <16:06:20>      8      0.05909255      0.00679145      5.8
 <Jun29-2020> <16:06:23>      9      0.02022466      0.00210142      1.1
 <Jun29-2020> <16:06:26>     10      0.00487393      0.00022972      0.0
 <Jun29-2020> <16:06:29>     11      0.00172470      0.00008692      0.0
 <Jun29-2020> <16:06:32>     12      0.00057996      0.00002792      0.0
 <Jun29-2020> <16:06:35>     13      0.00041117      0.00001928      0.0
 <Jun29-2020> <16:06:38>     14      0.00013774      0.00001123      0.0
 <Jun29-2020> <16:06:41>     15      0.00008136      0.00000848      0.0
 <Jun29-2020> <16:06:44>     16      0.00008747      0.00000490      0.0
 <Jun29-2020> <16:06:47>     17      0.00008051      0.00000303      0.0
 <Jun29-2020> <16:06:49>     18      0.00005672      0.00000285      0.0
 <Jun29-2020> <16:06:52>     19      0.00004165      0.00000280      0.0
 <Jun29-2020> <16:06:55>     20      0.00004109      0.00000484      0.0
 <Jun29-2020> <16:06:58>     21      0.00002745      0.00000152      0.0
 <Jun29-2020> <16:07:01>     22      0.00000931      0.00000064      0.0
 <Jun29-2020> <16:07:01>  SCF converged
 <Jun29-2020> <16:07:03>     23      0.00000602      0.00000053      0.0
 <Jun29-2020> <16:07:05>  >>>> TOTEN
 <Jun29-2020> <16:07:09>  >>>> POPAN
 <Jun29-2020> <16:07:09>  >>>> DEBYE
 <Jun29-2020> <16:07:09>  >>>> ENGRAD
 <Jun29-2020> <16:07:20>  current energy                               -7.92054061 Hartree
 <Jun29-2020> <16:07:20>  energy change                      -0.00000724     0.00100000    T
 <Jun29-2020> <16:07:20>  constrained gradient max            0.00247203     0.00100000    F
 <Jun29-2020> <16:07:20>  constrained gradient rms            0.00058308     0.00066667    T
 <Jun29-2020> <16:07:20>  gradient max                        0.00247203
 <Jun29-2020> <16:07:20>  gradient rms                        0.00058308
 <Jun29-2020> <16:07:20>  cart. step max                      0.00685519     0.01000000    T
 <Jun29-2020> <16:07:20>  cart. step rms                      0.00204607     0.00666667    T
  Coordinates in Geometry Cycle 24
    Atom         X           Y           Z   (Angstrom)
    1.Pu       -1.794509    0.970442   -2.881960
    2.Pu        1.794509   -0.970442   -2.881960
    3.Cl        0.344108   -3.204726   -3.213902
    4.Cl        2.964590    1.082518   -1.525622
    5.Cl       -0.344108    3.204726   -3.213902
    6.Cl       -2.964590   -1.082518   -1.525622
    7.N         1.774383    0.242927   -5.571834
    8.N         4.343189   -2.123482   -3.972649
    9.N         2.266158   -2.075757   -0.159058
   10.N        -1.774383   -0.242927   -5.571834
   11.N        -4.343189    2.123482   -3.972649
   12.N        -2.266158    2.075757   -0.159058
   13.O        -1.193704    1.439140   -0.476613
   14.O        -3.140965    2.206324   -1.092856
   15.O        -2.443817    2.533026    0.975153
   16.O        -1.435167    0.986856   -5.346916
   17.O        -2.141312   -0.910310   -4.540568
   18.O        -1.738814   -0.730799   -6.703344
   19.O        -3.272442    2.828321   -3.877044
   20.O        -4.230663    0.890697   -3.616414
   21.O        -5.411319    2.596168   -4.375173
   22.O         0.000000    0.000000   -2.616450
   23.O         1.193704   -1.439140   -0.476613
   24.O         3.140965   -2.206324   -1.092856
   25.O         2.443817   -2.533026    0.975153
   26.O         1.435167   -0.986856   -5.346916
   27.O         2.141312    0.910310   -4.540568
   28.O         1.738814    0.730799   -6.703344
   29.O         3.272442   -2.828321   -3.877044
   30.O         4.230663   -0.890697   -3.616414
   31.O         5.411319   -2.596168   -4.375173
 <Jun29-2020> <16:07:20>  >>>> CORORT
 <Jun29-2020> <16:07:21>  >>>> CLSMAT
 <Jun29-2020> <16:07:21>  >>>> ORTHON
 <Jun29-2020> <16:07:21>  >>>> GENPT
 <Jun29-2020> <16:07:21>  Block Length= 128
 <Jun29-2020> <16:07:21>  >>>> PTBAS
 <Jun29-2020> <16:07:25>  combining surface points...
 <Jun29-2020> <16:07:25>  combining surface points...
 <Jun29-2020> <16:07:25>  combining surface points...
 <Jun29-2020> <16:07:25>  >>>> CYCLE
 <Jun29-2020> <16:07:27>              |Error|         MaxErr       Wt(A-DIIS)
 <Jun29-2020> <16:07:27>      1      0.17450510      0.00765298
 <Jun29-2020> <16:07:30>      2      0.56045284      0.02920268    100.0
 <Jun29-2020> <16:07:34>      3      0.17310129      0.00638520    100.0
 <Jun29-2020> <16:07:37>      4      0.21498134      0.00791424    100.0
 <Jun29-2020> <16:07:40>      5      1.13214589      0.05792106    100.0
 <Jun29-2020> <16:07:43>      6      0.32458397      0.01320871    100.0
 <Jun29-2020> <16:07:46>      7      0.11363402      0.00987286      9.0
 <Jun29-2020> <16:07:49>      8      0.07142714      0.00800366      7.1
 <Jun29-2020> <16:07:52>      9      0.02139191      0.00209280      1.1
 <Jun29-2020> <16:07:55>     10      0.00611673      0.00024522      0.0
 <Jun29-2020> <16:07:58>     11      0.00196840      0.00010089      0.0
 <Jun29-2020> <16:08:01>     12      0.00080525      0.00004132      0.0
 <Jun29-2020> <16:08:04>     13      0.00061227      0.00003208      0.0
 <Jun29-2020> <16:08:07>     14      0.00010862      0.00000425      0.0
 <Jun29-2020> <16:08:10>     15      0.00007615      0.00000446      0.0
 <Jun29-2020> <16:08:13>     16      0.00006548      0.00000246      0.0
 <Jun29-2020> <16:08:16>     17      0.00004122      0.00000199      0.0
 <Jun29-2020> <16:08:19>     18      0.00002274      0.00000108      0.0
 <Jun29-2020> <16:08:21>     19      0.00004020      0.00000218      0.0
 <Jun29-2020> <16:08:24>     20      0.00001473      0.00000187      0.0
 <Jun29-2020> <16:08:27>     21      0.00002070      0.00000129      0.0
 <Jun29-2020> <16:08:30>     22      0.00000491      0.00000024      0.0
 <Jun29-2020> <16:08:30>  SCF converged
 <Jun29-2020> <16:08:32>     23      0.00000222      0.00000019      0.0
 <Jun29-2020> <16:08:33>  >>>> TOTEN
 <Jun29-2020> <16:08:38>  >>>> POPAN
 <Jun29-2020> <16:08:38>  >>>> DEBYE
 <Jun29-2020> <16:08:38>  >>>> ENGRAD
 <Jun29-2020> <16:08:49>  current energy                               -7.92057551 Hartree
 <Jun29-2020> <16:08:49>  energy change                      -0.00003491     0.00100000    T
 <Jun29-2020> <16:08:49>  constrained gradient max            0.00139251     0.00100000    F
 <Jun29-2020> <16:08:49>  constrained gradient rms            0.00043075     0.00066667    T
 <Jun29-2020> <16:08:49>  gradient max                        0.00139251
 <Jun29-2020> <16:08:49>  gradient rms                        0.00043075
 <Jun29-2020> <16:08:49>  cart. step max                      0.00914018     0.01000000    T
 <Jun29-2020> <16:08:49>  cart. step rms                      0.00402482     0.00666667    T
  Coordinates in Geometry Cycle 25
    Atom         X           Y           Z   (Angstrom)
    1.Pu       -1.795364    0.971032   -2.884088
    2.Pu        1.795364   -0.971032   -2.884088
    3.Cl        0.343047   -3.201401   -3.220749
    4.Cl        2.962002    1.080030   -1.522669
    5.Cl       -0.343047    3.201401   -3.220749
    6.Cl       -2.962002   -1.080030   -1.522669
    7.N         1.777519    0.248186   -5.571586
    8.N         4.344624   -2.121647   -3.971651
    9.N         2.258034   -2.076875   -0.158386
   10.N        -1.777519   -0.248186   -5.571586
   11.N        -4.344624    2.121647   -3.971651
   12.N        -2.258034    2.076875   -0.158386
   13.O        -1.186392    1.441850   -0.479719
   14.O        -3.134561    2.212073   -1.090322
   15.O        -2.435076    2.528693    0.978437
   16.O        -1.438190    0.982006   -5.349935
   17.O        -2.145906   -0.912047   -4.538321
   18.O        -1.740042   -0.739939   -6.701168
   19.O        -3.275073    2.827326   -3.878273
   20.O        -4.233950    0.890737   -3.608589
   21.O        -5.412792    2.591989   -4.377994
   22.O         0.000000    0.000000   -2.624024
   23.O         1.186392   -1.441850   -0.479719
   24.O         3.134561   -2.212073   -1.090322
   25.O         2.435076   -2.528693    0.978437
   26.O         1.438190   -0.982006   -5.349935
   27.O         2.145906    0.912047   -4.538321
   28.O         1.740042    0.739939   -6.701168
   29.O         3.275073   -2.827326   -3.878273
   30.O         4.233950   -0.890737   -3.608589
   31.O         5.412792   -2.591989   -4.377994
 <Jun29-2020> <16:08:49>  >>>> CORORT
 <Jun29-2020> <16:08:50>  >>>> CLSMAT
 <Jun29-2020> <16:08:50>  >>>> ORTHON
 <Jun29-2020> <16:08:50>  >>>> GENPT
 <Jun29-2020> <16:08:50>  Block Length= 128
 <Jun29-2020> <16:08:50>  >>>> PTBAS
 <Jun29-2020> <16:08:53>  combining surface points...
 <Jun29-2020> <16:08:53>  combining surface points...
 <Jun29-2020> <16:08:53>  combining surface points...
 <Jun29-2020> <16:08:53>  >>>> CYCLE
 <Jun29-2020> <16:08:56>              |Error|         MaxErr       Wt(A-DIIS)
 <Jun29-2020> <16:08:56>      1      0.18387696      0.01591286
 <Jun29-2020> <16:08:59>      2      0.56143550      0.02935070    100.0
 <Jun29-2020> <16:09:02>      3      0.17179960      0.00615042    100.0
 <Jun29-2020> <16:09:06>      4      0.21883271      0.00801630    100.0
 <Jun29-2020> <16:09:09>      5      1.07524031      0.05450286    100.0
 <Jun29-2020> <16:09:12>      6      0.30777954      0.01283084    100.0
 <Jun29-2020> <16:09:16>      7      0.13069155      0.01199868     11.1
 <Jun29-2020> <16:09:19>      8      0.07169738      0.00813835      7.2
 <Jun29-2020> <16:09:22>      9      0.02099918      0.00206949      1.1
 <Jun29-2020> <16:09:26>     10      0.00566761      0.00022184      0.0
 <Jun29-2020> <16:09:29>     11      0.00178226      0.00008779      0.0
 <Jun29-2020> <16:09:32>     12      0.00073902      0.00003663      0.0
 <Jun29-2020> <16:09:35>     13      0.00058152      0.00003015      0.0
 <Jun29-2020> <16:09:37>     14      0.00010374      0.00000458      0.0
 <Jun29-2020> <16:09:40>     15      0.00007409      0.00000441      0.0
 <Jun29-2020> <16:09:43>     16      0.00006662      0.00000279      0.0
 <Jun29-2020> <16:09:46>     17      0.00004382      0.00000198      0.0
 <Jun29-2020> <16:09:49>     18      0.00002418      0.00000133      0.0
 <Jun29-2020> <16:09:51>     19      0.00004755      0.00000235      0.0
 <Jun29-2020> <16:09:54>     20      0.00001227      0.00000149      0.0
 <Jun29-2020> <16:09:57>     21      0.00001876      0.00000129      0.0
 <Jun29-2020> <16:10:00>     22      0.00000410      0.00000043      0.0
 <Jun29-2020> <16:10:00>  SCF converged
 <Jun29-2020> <16:10:03>     23      0.00000377      0.00000037      0.0
 <Jun29-2020> <16:10:04>  >>>> TOTEN
 <Jun29-2020> <16:10:08>  >>>> POPAN
 <Jun29-2020> <16:10:08>  >>>> DEBYE
 <Jun29-2020> <16:10:08>  >>>> ENGRAD
 <Jun29-2020> <16:10:19>  current energy                               -7.92062971 Hartree
 <Jun29-2020> <16:10:19>  energy change                      -0.00005419     0.00100000    T
 <Jun29-2020> <16:10:19>  constrained gradient max            0.00086393     0.00100000    T
 <Jun29-2020> <16:10:19>  constrained gradient rms            0.00028508     0.00066667    T
 <Jun29-2020> <16:10:19>  gradient max                        0.00086393
 <Jun29-2020> <16:10:19>  gradient rms                        0.00028508
 <Jun29-2020> <16:10:19>  cart. step max                      0.00803902     0.01000000    T
 <Jun29-2020> <16:10:19>  cart. step rms                      0.00243531     0.00666667    T
 <Jun29-2020> <16:10:19>  GEOMETRY CONVERGED
 <Jun29-2020> <16:10:19>  Calculating Energy Terms for Final Geometry
  Coordinates in Geometry Cycle 25
    Atom         X           Y           Z   (Angstrom)
    1.Pu       -1.795364    0.971032   -2.884088
    2.Pu        1.795364   -0.971032   -2.884088
    3.Cl        0.343047   -3.201401   -3.220749
    4.Cl        2.962002    1.080030   -1.522669
    5.Cl       -0.343047    3.201401   -3.220749
    6.Cl       -2.962002   -1.080030   -1.522669
    7.N         1.777519    0.248186   -5.571586
    8.N         4.344624   -2.121647   -3.971651
    9.N         2.258034   -2.076875   -0.158386
   10.N        -1.777519   -0.248186   -5.571586
   11.N        -4.344624    2.121647   -3.971651
   12.N        -2.258034    2.076875   -0.158386
   13.O        -1.186392    1.441850   -0.479719
   14.O        -3.134561    2.212073   -1.090322
   15.O        -2.435076    2.528693    0.978437
   16.O        -1.438190    0.982006   -5.349935
   17.O        -2.145906   -0.912047   -4.538321
   18.O        -1.740042   -0.739939   -6.701168
   19.O        -3.275073    2.827326   -3.878273
   20.O        -4.233950    0.890737   -3.608589
   21.O        -5.412792    2.591989   -4.377994
   22.O         0.000000    0.000000   -2.624024
   23.O         1.186392   -1.441850   -0.479719
   24.O         3.134561   -2.212073   -1.090322
   25.O         2.435076   -2.528693    0.978437
   26.O         1.438190   -0.982006   -5.349935
   27.O         2.145906    0.912047   -4.538321
   28.O         1.740042    0.739939   -6.701168
   29.O         3.275073   -2.827326   -3.878273
   30.O         4.233950   -0.890737   -3.608589
   31.O         5.412792   -2.591989   -4.377994
 <Jun29-2020> <16:10:20>  >>>> CORORT
 <Jun29-2020> <16:10:20>  >>>> CLSMAT
 <Jun29-2020> <16:10:20>  >>>> ORTHON
 <Jun29-2020> <16:10:21>  >>>> GENPT
 <Jun29-2020> <16:10:21>  Block Length= 128
 <Jun29-2020> <16:10:22>  >>>> PTBAS
 <Jun29-2020> <16:10:25>  combining surface points...
 <Jun29-2020> <16:10:25>  combining surface points...
 <Jun29-2020> <16:10:25>  combining surface points...
 <Jun29-2020> <16:10:25>  >>>> CYCLE
 <Jun29-2020> <16:10:27>              |Error|         MaxErr       Wt(A-DIIS)
 <Jun29-2020> <16:10:27>      1      0.17026112      0.00742738
 <Jun29-2020> <16:10:31>      2      0.55714768      0.02898312    100.0
 <Jun29-2020> <16:10:34>      3      0.17227444      0.00624287    100.0
 <Jun29-2020> <16:10:37>      4      0.21499278      0.00791859    100.0
 <Jun29-2020> <16:10:40>      5      1.10808435      0.05658458    100.0
 <Jun29-2020> <16:10:44>      6      0.31665369      0.01302584    100.0
 <Jun29-2020> <16:10:47>      7      0.12196355      0.01089503     10.0
 <Jun29-2020> <16:10:50>      8      0.07425872      0.00835194      7.4
 <Jun29-2020> <16:10:53>      9      0.02155815      0.00210922      1.1
 <Jun29-2020> <16:10:56>     10      0.00597203      0.00023530      0.0
 <Jun29-2020> <16:10:59>     11      0.00193344      0.00009808      0.0
 <Jun29-2020> <16:11:02>     12      0.00080007      0.00004111      0.0
 <Jun29-2020> <16:11:05>     13      0.00059747      0.00003125      0.0
 <Jun29-2020> <16:11:08>     14      0.00010700      0.00000440      0.0
 <Jun29-2020> <16:11:11>     15      0.00007505      0.00000416      0.0
 <Jun29-2020> <16:11:14>     16      0.00006740      0.00000246      0.0
 <Jun29-2020> <16:11:17>     17      0.00004153      0.00000198      0.0
 <Jun29-2020> <16:11:20>     18      0.00002213      0.00000103      0.0
 <Jun29-2020> <16:11:22>     19      0.00003988      0.00000225      0.0
 <Jun29-2020> <16:11:25>     20      0.00001435      0.00000183      0.0
 <Jun29-2020> <16:11:28>     21      0.00002177      0.00000140      0.0
 <Jun29-2020> <16:11:31>     22      0.00000409      0.00000023      0.0
 <Jun29-2020> <16:11:31>  SCF converged
 <Jun29-2020> <16:11:33>     23      0.00000243      0.00000017      0.0
 <Jun29-2020> <16:11:35>  >>>> TOTEN
 <Jun29-2020> <16:11:49>  >>>> POPAN
 <Jun29-2020> <16:11:49>  >>>> DEBYE
 <Jun29-2020> <16:11:49>  >>>> AMETS
 <Jun29-2020> <16:11:49>  >>>> POPUL
 <Jun29-2020> <16:11:50>   Bond Energy          -7.92062971 a.u.
 <Jun29-2020> <16:11:50>   Bond Energy        -215.53130084 eV
 <Jun29-2020> <16:11:50>   Bond Energy       -4970.27       kcal/mol
 <Jun29-2020> <16:11:50>  >>>> ENHESS
 <Jun29-2020> <16:12:10>  === NUCLEUS:     1
 <Jun29-2020> <16:20:31>  === NUCLEUS:     3
 <Jun29-2020> <16:27:28>  === NUCLEUS:     4
 <Jun29-2020> <16:34:23>  === NUCLEUS:     7
 <Jun29-2020> <16:42:04>  === NUCLEUS:     8
 <Jun29-2020> <16:49:18>  === NUCLEUS:     9
 <Jun29-2020> <16:56:39>  === NUCLEUS:    13
 <Jun29-2020> <17:03:43>  === NUCLEUS:    14
 <Jun29-2020> <17:11:01>  === NUCLEUS:    15
 <Jun29-2020> <17:17:55>  === NUCLEUS:    16
 <Jun29-2020> <17:25:25>  === NUCLEUS:    17
 <Jun29-2020> <17:32:55>  === NUCLEUS:    18
 <Jun29-2020> <17:39:50>  === NUCLEUS:    19
 <Jun29-2020> <17:46:58>  === NUCLEUS:    20
 <Jun29-2020> <17:54:17>  === NUCLEUS:    21
 <Jun29-2020> <18:01:18>  === NUCLEUS:    22
 <Jun29-2020> <18:08:47>  >>>> CALC_HESS_PMAT
 <Jun29-2020> <18:09:25>  >>>> CALC_HESS_WMAT
 <Jun29-2020> <18:09:34>  NORMAL TERMINATION
 <Jun29-2020> <18:09:34>  END
NORMAL TERMINATION
