 Entering Gaussian System, Link 0=/home/miro_lab/software/g16/g16
 Input=run.com
 Output=run.log
 Initial command:
 /home/miro_lab/software/g16/l1.exe "/scratch/job_32498/Gau-32424.inp" -scrdir="/scratch/job_32498/"
 Entering Link 1 = /home/miro_lab/software/g16/l1.exe PID=     32427.
  
 Copyright (c) 1988,1990,1992,1993,1995,1998,2003,2009,2016,
            Gaussian, Inc.  All Rights Reserved.
  
 This is part of the Gaussian(R) 16 program.  It is based on
 the Gaussian(R) 09 system (copyright 2009, Gaussian, Inc.),
 the Gaussian(R) 03 system (copyright 2003, Gaussian, Inc.),
 the Gaussian(R) 98 system (copyright 1998, Gaussian, Inc.),
 the Gaussian(R) 94 system (copyright 1995, Gaussian, Inc.),
 the Gaussian 92(TM) system (copyright 1992, Gaussian, Inc.),
 the Gaussian 90(TM) system (copyright 1990, Gaussian, Inc.),
 the Gaussian 88(TM) system (copyright 1988, Gaussian, Inc.),
 the Gaussian 86(TM) system (copyright 1986, Carnegie Mellon
 University), and the Gaussian 82(TM) system (copyright 1983,
 Carnegie Mellon University). Gaussian is a federally registered
 trademark of Gaussian, Inc.
  
 This software contains proprietary and confidential information,
 including trade secrets, belonging to Gaussian, Inc.
  
 This software is provided under written license and may be
 used, copied, transmitted, or stored only in accord with that
 written license.
  
 The following legend is applicable only to US Government
 contracts under FAR:
  
                    RESTRICTED RIGHTS LEGEND
  
 Use, reproduction and disclosure by the US Government is
 subject to restrictions as set forth in subparagraphs (a)
 and (c) of the Commercial Computer Software - Restricted
 Rights clause in FAR 52.227-19.
  
 Gaussian, Inc.
 340 Quinnipiac St., Bldg. 40, Wallingford CT 06492
  
  
 ---------------------------------------------------------------
 Warning -- This program may not be used in any manner that
 competes with the business of Gaussian, Inc. or will provide
 assistance to any competitor of Gaussian, Inc.  The licensee
 of this program is prohibited from giving any competitor of
 Gaussian, Inc. access to this program.  By using this program,
 the user acknowledges that Gaussian, Inc. is engaged in the
 business of creating and licensing software in the field of
 computational chemistry and represents and warrants to the
 licensee that it is not a competitor of Gaussian, Inc. and that
 it will not use this program in any manner prohibited above.
 ---------------------------------------------------------------
  

 Cite this work as:
 Gaussian 16, Revision A.03,
 M. J. Frisch, G. W. Trucks, H. B. Schlegel, G. E. Scuseria, 
 M. A. Robb, J. R. Cheeseman, G. Scalmani, V. Barone, 
 G. A. Petersson, H. Nakatsuji, X. Li, M. Caricato, A. V. Marenich, 
 J. Bloino, B. G. Janesko, R. Gomperts, B. Mennucci, H. P. Hratchian, 
 J. V. Ortiz, A. F. Izmaylov, J. L. Sonnenberg, D. Williams-Young, 
 F. Ding, F. Lipparini, F. Egidi, J. Goings, B. Peng, A. Petrone, 
 T. Henderson, D. Ranasinghe, V. G. Zakrzewski, J. Gao, N. Rega, 
 G. Zheng, W. Liang, M. Hada, M. Ehara, K. Toyota, R. Fukuda, 
 J. Hasegawa, M. Ishida, T. Nakajima, Y. Honda, O. Kitao, H. Nakai, 
 T. Vreven, K. Throssell, J. A. Montgomery, Jr., J. E. Peralta, 
 F. Ogliaro, M. J. Bearpark, J. J. Heyd, E. N. Brothers, K. N. Kudin, 
 V. N. Staroverov, T. A. Keith, R. Kobayashi, J. Normand, 
 K. Raghavachari, A. P. Rendell, J. C. Burant, S. S. Iyengar, 
 J. Tomasi, M. Cossi, J. M. Millam, M. Klene, C. Adamo, R. Cammi, 
 J. W. Ochterski, R. L. Martin, K. Morokuma, O. Farkas, 
 J. B. Foresman, and D. J. Fox, Gaussian, Inc., Wallingford CT, 2016.
 
 ******************************************
 Gaussian 16:  EM64L-G16RevA.03 25-Dec-2016
                18-Sep-2018 
 ******************************************
 %chk=01.chk
 %nprocshared=24
 Will use up to   24 processors via shared memory.
 ----------------------------------------------------------------------
 #p opt b3lyp/def2TZVP freq scrf=(solvent=dichloromethane,smd) Empirica
 lDispersion=GD3BJ
 ----------------------------------------------------------------------
 1/18=20,19=15,26=3,38=1/1,3;
 2/9=110,12=2,17=6,18=5,40=1/2;
 3/5=44,7=101,11=2,25=1,30=1,70=32201,71=1,72=9,74=-5,124=41/1,2,3;
 4//1;
 5/5=2,38=5,53=9/2;
 6/7=2,8=2,9=2,10=2,28=1/1;
 7//1,2,3,16;
 1/18=20,19=15,26=3/3(2);
 2/9=110/2;
 99//99;
 2/9=110/2;
 3/5=44,7=101,11=2,25=1,30=1,70=32205,71=1,72=9,74=-5,124=41/1,2,3;
 4/5=5,16=3,69=1/1;
 5/5=2,38=5,53=9/2;
 7//1,2,3,16;
 1/18=20,19=15,26=3/3(-5);
 2/9=110/2;
 6/7=2,8=2,9=2,10=2,19=2,28=1/1;
 99/9=1/99;
 Leave Link    1 at Tue Sep 18 10:38:06 2018, MaxMem=           0 cpu:               2.0 elap:               0.1
 (Enter /home/miro_lab/software/g16/l101.exe)
 -------------------
 Title Card Required
 -------------------
 Symbolic Z-matrix:
 Charge =  0 Multiplicity = 1
 C                     2.95433   0.18237   1.1147 
 C                     2.4419    1.33712   0.60194 
 C                     1.81052   1.13941  -0.65778 
 C                     1.84555  -0.18119  -1.06505 
 H                     1.39402   1.93124  -1.2618 
 H                     1.5267   -0.58941  -2.01004 
 S                     2.67623  -1.16502   0.07864 
 H                     3.46725   0.04307   2.05275 
 I                    -0.95087   0.07614  -0.17264 
 Cl                   -3.276    -0.23259   0.4766 
 H                     2.50481   2.29198   1.10116 
 
 Add virtual bond connecting atoms I9         and C3         Dist= 5.67D+00.
 Add virtual bond connecting atoms I9         and C4         Dist= 5.57D+00.
 Add atom      9 valence  3 ND=      0 dihedral      10      4      9      3
 ITRead=  0  0  0  0  0  0  0  0  0  0  0
 MicOpt= -1 -1 -1 -1 -1 -1 -1 -1 -1 -1 -1
 NAtoms=     11 NQM=       11 NQMF=       0 NMMI=      0 NMMIF=      0
                NMic=       0 NMicF=      0.
                    Isotopes and Nuclear Properties:
 (Nuclear quadrupole moments (NQMom) in fm**2, nuclear magnetic moments (NMagM)
  in nuclear magnetons)

  Atom         1           2           3           4           5           6           7           8           9          10
 IAtWgt=          12          12          12          12           1           1          32           1         127          35
 AtmWgt=  12.0000000  12.0000000  12.0000000  12.0000000   1.0078250   1.0078250  31.9720718   1.0078250 126.9004000  34.9688527
 NucSpn=           0           0           0           0           1           1           0           1           5           3
 AtZEff=  -0.0000000  -0.0000000  -0.0000000  -0.0000000  -0.0000000  -0.0000000  -0.0000000  -0.0000000  -0.0000000  -0.0000000
 NQMom=    0.0000000   0.0000000   0.0000000   0.0000000   0.0000000   0.0000000   0.0000000   0.0000000 -71.0000000  -8.1650000
 NMagM=    0.0000000   0.0000000   0.0000000   0.0000000   2.7928460   2.7928460   0.0000000   2.7928460   2.8132800   0.8218740
 AtZNuc=   6.0000000   6.0000000   6.0000000   6.0000000   1.0000000   1.0000000  16.0000000   1.0000000  53.0000000  17.0000000

  Atom        11
 IAtWgt=           1
 AtmWgt=   1.0078250
 NucSpn=           1
 AtZEff=  -0.0000000
 NQMom=    0.0000000
 NMagM=    2.7928460
 AtZNuc=   1.0000000
 Leave Link  101 at Tue Sep 18 10:38:06 2018, MaxMem=   104857600 cpu:               3.8 elap:               0.2
 (Enter /home/miro_lab/software/g16/l103.exe)

 GradGradGradGradGradGradGradGradGradGradGradGradGradGradGradGradGradGrad
 Berny optimization.
 Initialization pass.
                           ----------------------------
                           !    Initial Parameters    !
                           ! (Angstroms and Degrees)  !
 --------------------------                            --------------------------
 ! Name  Definition              Value          Derivative Info.                !
 --------------------------------------------------------------------------------
 ! R1    R(1,2)                  1.3634         estimate D2E/DX2                !
 ! R2    R(1,7)                  1.7223         estimate D2E/DX2                !
 ! R3    R(1,8)                  1.0782         estimate D2E/DX2                !
 ! R4    R(2,3)                  1.4229         estimate D2E/DX2                !
 ! R5    R(2,11)                 1.0793         estimate D2E/DX2                !
 ! R6    R(3,4)                  1.3824         estimate D2E/DX2                !
 ! R7    R(3,5)                  1.0795         estimate D2E/DX2                !
 ! R8    R(3,9)                  2.9985         estimate D2E/DX2                !
 ! R9    R(4,6)                  1.0776         estimate D2E/DX2                !
 ! R10   R(4,7)                  1.7222         estimate D2E/DX2                !
 ! R11   R(4,9)                  2.9466         estimate D2E/DX2                !
 ! R12   R(9,10)                 2.4337         estimate D2E/DX2                !
 ! A1    A(2,1,7)              112.0653         estimate D2E/DX2                !
 ! A2    A(2,1,8)              127.9836         estimate D2E/DX2                !
 ! A3    A(7,1,8)              119.9425         estimate D2E/DX2                !
 ! A4    A(1,2,3)              112.4602         estimate D2E/DX2                !
 ! A5    A(1,2,11)             123.6017         estimate D2E/DX2                !
 ! A6    A(3,2,11)             123.9372         estimate D2E/DX2                !
 ! A7    A(2,3,4)              112.4771         estimate D2E/DX2                !
 ! A8    A(2,3,5)              124.3785         estimate D2E/DX2                !
 ! A9    A(2,3,9)              108.3409         estimate D2E/DX2                !
 ! A10   A(4,3,5)              123.069          estimate D2E/DX2                !
 ! A11   A(5,3,9)               89.7318         estimate D2E/DX2                !
 ! A12   A(3,4,6)              127.7856         estimate D2E/DX2                !
 ! A13   A(3,4,7)              111.2413         estimate D2E/DX2                !
 ! A14   A(6,4,7)              120.5744         estimate D2E/DX2                !
 ! A15   A(6,4,9)               91.0237         estimate D2E/DX2                !
 ! A16   A(7,4,9)              107.8492         estimate D2E/DX2                !
 ! A17   A(1,7,4)               91.7454         estimate D2E/DX2                !
 ! A18   L(3,9,10,8,-1)        178.7292         estimate D2E/DX2                !
 ! A19   L(4,9,10,8,-1)        181.6964         estimate D2E/DX2                !
 ! A20   L(3,9,10,8,-2)        158.3936         estimate D2E/DX2                !
 ! A21   L(4,9,10,8,-2)        197.9097         estimate D2E/DX2                !
 ! D1    D(7,1,2,3)             -0.1192         estimate D2E/DX2                !
 ! D2    D(7,1,2,11)           179.5463         estimate D2E/DX2                !
 ! D3    D(8,1,2,3)           -179.0352         estimate D2E/DX2                !
 ! D4    D(8,1,2,11)             0.6303         estimate D2E/DX2                !
 ! D5    D(2,1,7,4)             -0.4396         estimate D2E/DX2                !
 ! D6    D(8,1,7,4)            178.5745         estimate D2E/DX2                !
 ! D7    D(1,2,3,4)              0.8062         estimate D2E/DX2                !
 ! D8    D(1,2,3,5)           -176.1128         estimate D2E/DX2                !
 ! D9    D(1,2,3,9)             81.1292         estimate D2E/DX2                !
 ! D10   D(11,2,3,4)          -178.858          estimate D2E/DX2                !
 ! D11   D(11,2,3,5)             4.2229         estimate D2E/DX2                !
 ! D12   D(11,2,3,9)           -98.5351         estimate D2E/DX2                !
 ! D13   D(2,3,4,6)           -173.8166         estimate D2E/DX2                !
 ! D14   D(2,3,4,7)             -1.1209         estimate D2E/DX2                !
 ! D15   D(5,3,4,6)              3.1492         estimate D2E/DX2                !
 ! D16   D(5,3,4,7)            175.8448         estimate D2E/DX2                !
 ! D17   D(3,4,7,1)              0.8931         estimate D2E/DX2                !
 ! D18   D(6,4,7,1)            174.1911         estimate D2E/DX2                !
 ! D19   D(9,4,7,1)            -83.5667         estimate D2E/DX2                !
 ! D20   D(10,4,9,3)           173.5144         estimate D2E/DX2                !
 --------------------------------------------------------------------------------
 Trust Radius=3.00D-01 FncErr=1.00D-07 GrdErr=1.00D-06 EigMax=2.50D+02 EigMin=1.00D-04
 Number of steps in this run=     63 maximum allowed number of steps=    100.
 GradGradGradGradGradGradGradGradGradGradGradGradGradGradGradGradGradGrad

 Leave Link  103 at Tue Sep 18 10:38:06 2018, MaxMem=   104857600 cpu:               0.4 elap:               0.0
 (Enter /home/miro_lab/software/g16/l202.exe)
                          Input orientation:                          
 ---------------------------------------------------------------------
 Center     Atomic      Atomic             Coordinates (Angstroms)
 Number     Number       Type             X           Y           Z
 ---------------------------------------------------------------------
      1          6           0        2.954332    0.182372    1.114704
      2          6           0        2.441895    1.337124    0.601941
      3          6           0        1.810515    1.139412   -0.657777
      4          6           0        1.845550   -0.181193   -1.065050
      5          1           0        1.394018    1.931236   -1.261798
      6          1           0        1.526703   -0.589405   -2.010037
      7         16           0        2.676227   -1.165024    0.078639
      8          1           0        3.467251    0.043072    2.052746
      9         53           0       -0.950874    0.076138   -0.172636
     10         17           0       -3.276004   -0.232594    0.476597
     11          1           0        2.504808    2.291977    1.101161
 ---------------------------------------------------------------------
                    Distance matrix (angstroms):
                    1          2          3          4          5
     1  C    0.000000
     2  C    1.363440   0.000000
     3  C    2.316448   1.422891   0.000000
     4  C    2.472429   2.332332   1.382424   0.000000
     5  H    3.337794   2.219130   1.079489   2.169089   0.000000
     6  H    3.521047   3.372168   2.213135   1.077637   2.632698
     7  S    1.722280   2.567002   2.569473   1.722200   3.609385
     8  H    1.078153   2.197899   3.360606   3.521486   4.341620
     9  I    4.113291   3.701478   2.998530   2.946627   3.182166
    10  Cl   6.276660   5.930775   5.389052   5.348797   5.432613
    11  H    2.157009   1.079316   2.214568   3.353157   2.635823
                    6          7          8          9         10
     6  H    0.000000
     7  S    2.452613   0.000000
     8  H    4.546643   2.445877   0.000000
     9  I    3.155531   3.841807   4.947044   0.000000
    10  Cl   5.420024   6.037951   6.930492   2.433731   0.000000
    11  H    4.351851   3.609126   2.624764   4.298167   6.338874
                   11
    11  H    0.000000
 Stoichiometry    C4H4ClIS
 Framework group  C1[X(C4H4ClIS)]
 Deg. of freedom    27
 Full point group                 C1      NOp   1
 Largest Abelian subgroup         C1      NOp   1
 Largest concise Abelian subgroup C1      NOp   1
                         Standard orientation:                         
 ---------------------------------------------------------------------
 Center     Atomic      Atomic             Coordinates (Angstroms)
 Number     Number       Type             X           Y           Z
 ---------------------------------------------------------------------
      1          6           0        2.955435    0.183444    1.112583
      2          6           0        2.443042    1.337560    0.598345
      3          6           0        1.811034    1.138135   -0.660788
      4          6           0        1.845560   -0.183081   -1.066119
      5          1           0        1.394450    1.929164   -1.265789
      6          1           0        1.526179   -0.592615   -2.010353
      7         16           0        2.676526   -1.165418    0.078644
      8          1           0        3.468753    0.045410    2.050594
      9         53           0       -0.950389    0.076253   -0.172799
     10         17           0       -3.275295   -0.230951    0.477962
     11          1           0        2.506417    2.293136    1.096120
 ---------------------------------------------------------------------
 Rotational constants (GHZ):           3.2765431           0.4789575           0.4647498
 Leave Link  202 at Tue Sep 18 10:38:06 2018, MaxMem=   104857600 cpu:               0.3 elap:               0.0
 (Enter /home/miro_lab/software/g16/l301.exe)
 Standard basis: def2TZVP (5D, 7F)
 Ernie: Thresh=  0.10000D-02 Tol=  0.10000D-05 Strict=F.
 There are   311 symmetry adapted cartesian basis functions of A   symmetry.
 There are   272 symmetry adapted basis functions of A   symmetry.
   272 basis functions,   483 primitive gaussians,   311 cartesian basis functions
    43 alpha electrons       43 beta electrons
       nuclear repulsion energy       525.8432856290 Hartrees.
 IExCor=  402 DFT=T Ex+Corr=B3LYP ExCW=0 ScaHFX=  0.200000
 ScaDFX=  0.800000  0.720000  1.000000  0.810000 ScalE2=  1.000000  1.000000
 IRadAn=      5 IRanWt=     -1 IRanGd=            0 ICorTp=0 IEmpDi=141
 NAtoms=   11 NActive=   11 NUniq=   11 SFac= 1.00D+00 NAtFMM=   60 NAOKFM=F Big=F
 Integral buffers will be    131072 words long.
 Raffenetti 2 integral format.
 Two-electron integral symmetry is turned on.
 R6Disp:  Grimme-D3(BJ) Dispersion energy=       -0.0264290397 Hartrees.
 Nuclear repulsion after empirical dispersion term =      525.8168565893 Hartrees.
 ------------------------------------------------------------------------------
 Polarizable Continuum Model (PCM)
 =================================
 Model                : PCM.
 Atomic radii         : SMD-Coulomb.
 Polarization charges : Total charges.
 Charge compensation  : None.
 Solution method      : On-the-fly selection.
 Cavity type          : VdW (van der Waals Surface) (Alpha=1.000).
 Cavity algorithm     : GePol (No added spheres)
                        Default sphere list used, NSphG=   11.
                        Lebedev-Laikov grids with approx.  5.0 points / Ang**2.
                        Smoothing algorithm: York/Karplus (Gamma=1.0000).
                        Polarization charges: spherical gaussians, with
                                              point-specific exponents (IZeta= 3).
                        Self-potential: point-specific (ISelfS= 7).
                        Self-field    : sphere-specific E.n sum rule (ISelfD= 2).
 1st derivatives      : Analytical E(r).r(x)/FMM algorithm (CHGder, D1EAlg=3).
                        Cavity 1st derivative terms included.
 Solvent              : Dichloromethane, Eps=   8.930000 Eps(inf)=   2.028346
 ------------------------------------------------------------------------------
 Spheres list:
 ISph  on   Nord     Re0    Alpha      Xe            Ye            Ze
    1   C      1    1.8500  1.000      2.955435      0.183444      1.112583
    2   C      2    1.8500  1.000      2.443042      1.337560      0.598345
    3   C      3    1.8500  1.000      1.811034      1.138135     -0.660788
    4   C      4    1.8500  1.000      1.845560     -0.183081     -1.066119
    5   H      5    1.2000  1.000      1.394450      1.929164     -1.265789
    6   H      6    1.2000  1.000      1.526179     -0.592615     -2.010353
    7   S      7    2.4900  1.000      2.676526     -1.165418      0.078644
    8   H      8    1.2000  1.000      3.468753      0.045410      2.050594
    9   I      9    1.9800  1.000     -0.950389      0.076253     -0.172799
   10  Cl     10    2.3800  1.000     -3.275295     -0.230951      0.477962
   11   H     11    1.2000  1.000      2.506417      2.293136      1.096120
 ------------------------------------------------------------------------------
 GePol: Number of generator spheres                  =      11
 GePol: Total number of spheres                      =      11
 GePol: Number of exposed spheres                    =      11 (100.00%)
 GePol: Number of points                             =    1396
 GePol: Average weight of points                     =       0.14
 GePol: Minimum weight of points                     =   0.43D-10
 GePol: Maximum weight of points                     =    0.19854
 GePol: Number of points with low weight             =      44
 GePol: Fraction of low-weight points (<1% of avg)   =       3.15%
 GePol: Cavity surface area                          =    196.002 Ang**2
 GePol: Cavity volume                                =    180.341 Ang**3
 ------------------------------------------------------------------------------
 Atomic radii for non-electrostatic terms: SMD-CDS.
 ------------------------------------------------------------------------------
 PCM non-electrostatic energy =        -0.0038604947 Hartrees.
 Nuclear repulsion after PCM non-electrostatic terms =      525.8129960947 Hartrees.
 Leave Link  301 at Tue Sep 18 10:38:06 2018, MaxMem=   104857600 cpu:               2.5 elap:               0.1
 (Enter /home/miro_lab/software/g16/l302.exe)
 NPDir=0 NMtPBC=     1 NCelOv=     1 NCel=       1 NClECP=     1 NCelD=      1
         NCelK=      1 NCelE2=     1 NClLst=     1 CellRange=     0.0.
 One-electron integrals computed using PRISM.
 One-electron integral symmetry used in STVInt
 PrsmSu:  requested number of processors reduced to:   7 ShMem   1 Linda.
   1 Symmetry operations used in ECPInt.
 ECPInt:  NShTT=    5253 NPrTT=   18162 LenC2=    4923 LenP2D=   12910.
 LDataN:  DoStor=T MaxTD1= 7 Len=  274
 Number of processors reduced to  17 by ecpmxn.
 NBasis=   272 RedAO= T EigKep=  7.71D-05  NBF=   272
 NBsUse=   272 1.00D-06 EigRej= -1.00D+00 NBFU=   272
 Precomputing XC quadrature grid using
 IXCGrd= 4 IRadAn=           5 IRanWt=          -1 IRanGd=           0 AccXCQ= 0.00D+00.
 Defaulting to unpruned grid for atomic number  53.
 Generated NRdTot=       0 NPtTot=           0 NUsed=           0 NTot=          32
 NSgBfM=   302   301   301   301   302 MxSgAt=    11 MxSgA2=    11.
 Leave Link  302 at Tue Sep 18 10:38:07 2018, MaxMem=   104857600 cpu:               8.9 elap:               0.4
 (Enter /home/miro_lab/software/g16/l303.exe)
 DipDrv:  MaxL=1.
 Leave Link  303 at Tue Sep 18 10:38:07 2018, MaxMem=   104857600 cpu:               0.8 elap:               0.1
 (Enter /home/miro_lab/software/g16/l401.exe)
 ExpMin= 7.49D-02 ExpMax= 6.95D+04 ExpMxC= 2.37D+03 IAcc=3 IRadAn=         5 AccDes= 0.00D+00
 Harris functional with IExCor=  402 and IRadAn=       5 diagonalized for initial guess.
 HarFok:  IExCor=  402 AccDes= 0.00D+00 IRadAn=         5 IDoV= 1 UseB2=F ITyADJ=14
 ICtDFT=  3500011 ScaDFX=  1.000000  1.000000  1.000000  1.000000
 Defaulting to unpruned grid for atomic number  53.
 FoFCou: FMM=F IPFlag=           0 FMFlag=      100000 FMFlg1=           0
         NFxFlg=           0 DoJE=T BraDBF=F KetDBF=T FulRan=T
         wScrn=  0.000000 ICntrl=       500 IOpCl=  0 I1Cent=   200000004 NGrid=           0
         NMat0=    1 NMatS0=      1 NMatT0=    0 NMatD0=    1 NMtDS0=    0 NMtDT0=    0
 Petite list used in FoFCou.
 Harris En= -1311.05380929110    
 JPrj=0 DoOrth=F DoCkMO=F.
 Leave Link  401 at Tue Sep 18 10:38:08 2018, MaxMem=   104857600 cpu:              14.6 elap:               0.6
 (Enter /home/miro_lab/software/g16/l502.exe)
 Integral symmetry usage will be decided dynamically.
 Closed shell SCF:
 Using DIIS extrapolation, IDIIS=  1040.
 NGot=   104857600 LenX=   104653941 LenY=   104556779
 Requested convergence on RMS density matrix=1.00D-08 within 128 cycles.
 Requested convergence on MAX density matrix=1.00D-06.
 Requested convergence on             energy=1.00D-06.
 No special actions if energy rises.
 Fock matrices will be formed incrementally for  20 cycles.

 Cycle   1  Pass 1  IDiag  1:
 FoFJK:  IHMeth= 1 ICntrl=       0 DoSepK=F KAlg= 0 I1Cent=           0 FoldK=F
 IRaf= 900000000 NMat=       1 IRICut=       1 DoRegI=T DoRafI=F ISym2E= 0 IDoP0=0 IntGTp=1.
 FoFCou: FMM=F IPFlag=           0 FMFlag=      100000 FMFlg1=           0
         NFxFlg=           0 DoJE=F BraDBF=F KetDBF=F FulRan=T
         wScrn=  0.000000 ICntrl=         0 IOpCl=  0 I1Cent=           0 NGrid=           0
         NMat0=    1 NMatS0=      1 NMatT0=    0 NMatD0=    1 NMtDS0=    0 NMtDT0=    0
 Symmetry not used in FoFCou.
 Defaulting to unpruned grid for atomic number  53.
 Defaulting to unpruned grid for atomic number  53.
 Defaulting to unpruned grid for atomic number  53.
 Defaulting to unpruned grid for atomic number  53.
 Defaulting to unpruned grid for atomic number  53.
 Defaulting to unpruned grid for atomic number  53.
 Defaulting to unpruned grid for atomic number  53.
 Defaulting to unpruned grid for atomic number  53.
 Defaulting to unpruned grid for atomic number  53.
 Defaulting to unpruned grid for atomic number  53.
 Defaulting to unpruned grid for atomic number  53.
 Defaulting to unpruned grid for atomic number  53.
 Defaulting to unpruned grid for atomic number  53.
 Defaulting to unpruned grid for atomic number  53.
 Defaulting to unpruned grid for atomic number  53.
 Defaulting to unpruned grid for atomic number  53.
 Defaulting to unpruned grid for atomic number  53.
 Defaulting to unpruned grid for atomic number  53.
 Defaulting to unpruned grid for atomic number  53.
 Defaulting to unpruned grid for atomic number  53.
 Defaulting to unpruned grid for atomic number  53.
 Defaulting to unpruned grid for atomic number  53.
 Defaulting to unpruned grid for atomic number  53.
 Defaulting to unpruned grid for atomic number  53.
 CoulSu:  requested number of processors reduced to:  17 ShMem   1 Linda.
 Inv3:  Mode=1 IEnd=     5846448.
 Iteration    1 A*A^-1 deviation from unit magnitude is 6.44D-15 for     78.
 Iteration    1 A*A^-1 deviation from orthogonality  is 3.47D-15 for    462    181.
 Iteration    1 A^-1*A deviation from unit magnitude is 6.00D-15 for     78.
 Iteration    1 A^-1*A deviation from orthogonality  is 1.16D-14 for    591    372.
 CoulSu:  requested number of processors reduced to:  17 ShMem   1 Linda.
 CoulSu:  requested number of processors reduced to:  17 ShMem   1 Linda.
 E= -1310.91301687771    
 DIIS: error= 2.31D-02 at cycle   1 NSaved=   1.
 NSaved= 1 IEnMin= 1 EnMin= -1310.91301687771     IErMin= 1 ErrMin= 2.31D-02
 ErrMax= 2.31D-02  0.00D+00 EMaxC= 1.00D-01 BMatC= 3.00D-01 BMatP= 3.00D-01
 IDIUse=3 WtCom= 7.69D-01 WtEn= 2.31D-01
 Coeff-Com:  0.100D+01
 Coeff-En:   0.100D+01
 Coeff:      0.100D+01
 Gap=     0.216 Goal=   None    Shift=    0.000
 GapD=    0.216 DampG=1.000 DampE=0.500 DampFc=0.5000 IDamp=-1.
 Damping current iteration by 5.00D-01
 RMSDP=4.32D-03 MaxDP=1.55D-01              OVMax= 5.66D-01

 Cycle   2  Pass 1  IDiag  1:
 RMSU=  2.14D-03    CP:  1.01D+00
 E= -1310.93220016823     Delta-E=       -0.019183290518 Rises=F Damp=T
 DIIS: error= 1.55D-02 at cycle   2 NSaved=   2.
 NSaved= 2 IEnMin= 2 EnMin= -1310.93220016823     IErMin= 2 ErrMin= 1.55D-02
 ErrMax= 1.55D-02  0.00D+00 EMaxC= 1.00D-01 BMatC= 5.10D-02 BMatP= 3.00D-01
 IDIUse=3 WtCom= 8.45D-01 WtEn= 1.55D-01
 Coeff-Com:  0.225D+00 0.775D+00
 Coeff-En:   0.470D+00 0.530D+00
 Coeff:      0.263D+00 0.737D+00
 Gap=     0.113 Goal=   None    Shift=    0.000
 RMSDP=1.62D-03 MaxDP=5.65D-02 DE=-1.92D-02 OVMax= 5.17D-01

 Cycle   3  Pass 1  IDiag  1:
 RMSU=  1.13D-03    CP:  1.01D+00  4.60D-01
 E= -1311.14781877651     Delta-E=       -0.215618608281 Rises=F Damp=F
 DIIS: error= 6.20D-03 at cycle   3 NSaved=   3.
 NSaved= 3 IEnMin= 3 EnMin= -1311.14781877651     IErMin= 3 ErrMin= 6.20D-03
 ErrMax= 6.20D-03  0.00D+00 EMaxC= 1.00D-01 BMatC= 2.09D-02 BMatP= 5.10D-02
 IDIUse=3 WtCom= 9.38D-01 WtEn= 6.20D-02
 Coeff-Com:  0.389D-01 0.375D+00 0.586D+00
 Coeff-En:   0.000D+00 0.000D+00 0.100D+01
 Coeff:      0.365D-01 0.352D+00 0.612D+00
 Gap=     0.142 Goal=   None    Shift=    0.000
 RMSDP=8.00D-04 MaxDP=3.61D-02 DE=-2.16D-01 OVMax= 8.87D-02

 Cycle   4  Pass 1  IDiag  1:
 RMSU=  6.44D-04    CP:  1.01D+00  5.43D-01  6.11D-01
 E= -1311.16372147739     Delta-E=       -0.015902700876 Rises=F Damp=F
 DIIS: error= 4.30D-03 at cycle   4 NSaved=   4.
 NSaved= 4 IEnMin= 4 EnMin= -1311.16372147739     IErMin= 4 ErrMin= 4.30D-03
 ErrMax= 4.30D-03  0.00D+00 EMaxC= 1.00D-01 BMatC= 7.58D-03 BMatP= 2.09D-02
 IDIUse=3 WtCom= 9.57D-01 WtEn= 4.30D-02
 Coeff-Com: -0.280D-01 0.121D+00 0.378D+00 0.528D+00
 Coeff-En:   0.000D+00 0.000D+00 0.238D+00 0.762D+00
 Coeff:     -0.268D-01 0.116D+00 0.372D+00 0.538D+00
 Gap=     0.140 Goal=   None    Shift=    0.000
 RMSDP=3.34D-04 MaxDP=1.37D-02 DE=-1.59D-02 OVMax= 3.44D-02

 Cycle   5  Pass 1  IDiag  1:
 RMSU=  2.14D-04    CP:  1.01D+00  5.67D-01  7.45D-01  6.91D-01
 E= -1311.17099113349     Delta-E=       -0.007269656100 Rises=F Damp=F
 DIIS: error= 1.09D-03 at cycle   5 NSaved=   5.
 NSaved= 5 IEnMin= 5 EnMin= -1311.17099113349     IErMin= 5 ErrMin= 1.09D-03
 ErrMax= 1.09D-03  0.00D+00 EMaxC= 1.00D-01 BMatC= 3.80D-04 BMatP= 7.58D-03
 IDIUse=3 WtCom= 9.89D-01 WtEn= 1.09D-02
 Coeff-Com: -0.141D-01 0.355D-01 0.129D+00 0.261D+00 0.589D+00
 Coeff-En:   0.000D+00 0.000D+00 0.000D+00 0.000D+00 0.100D+01
 Coeff:     -0.139D-01 0.352D-01 0.127D+00 0.258D+00 0.593D+00
 Gap=     0.141 Goal=   None    Shift=    0.000
 RMSDP=7.30D-05 MaxDP=2.77D-03 DE=-7.27D-03 OVMax= 9.35D-03

 Cycle   6  Pass 1  IDiag  1:
 RMSU=  6.09D-05    CP:  1.01D+00  5.62D-01  7.40D-01  7.33D-01  8.75D-01
 E= -1311.17133020338     Delta-E=       -0.000339069897 Rises=F Damp=F
 DIIS: error= 3.20D-04 at cycle   6 NSaved=   6.
 NSaved= 6 IEnMin= 6 EnMin= -1311.17133020338     IErMin= 6 ErrMin= 3.20D-04
 ErrMax= 3.20D-04  0.00D+00 EMaxC= 1.00D-01 BMatC= 6.05D-05 BMatP= 3.80D-04
 IDIUse=3 WtCom= 9.97D-01 WtEn= 3.20D-03
 Coeff-Com: -0.390D-02 0.264D-02 0.182D-01 0.722D-01 0.331D+00 0.580D+00
 Coeff-En:   0.000D+00 0.000D+00 0.000D+00 0.000D+00 0.100D+00 0.900D+00
 Coeff:     -0.389D-02 0.263D-02 0.181D-01 0.720D-01 0.330D+00 0.581D+00
 Gap=     0.140 Goal=   None    Shift=    0.000
 RMSDP=2.84D-05 MaxDP=1.07D-03 DE=-3.39D-04 OVMax= 3.12D-03

 Cycle   7  Pass 1  IDiag  1:
 RMSU=  1.98D-05    CP:  1.01D+00  5.61D-01  7.39D-01  7.50D-01  9.15D-01
                    CP:  7.56D-01
 E= -1311.17138660472     Delta-E=       -0.000056401333 Rises=F Damp=F
 DIIS: error= 9.34D-05 at cycle   7 NSaved=   7.
 NSaved= 7 IEnMin= 7 EnMin= -1311.17138660472     IErMin= 7 ErrMin= 9.34D-05
 ErrMax= 9.34D-05  0.00D+00 EMaxC= 1.00D-01 BMatC= 4.17D-06 BMatP= 6.05D-05
 IDIUse=1 WtCom= 1.00D+00 WtEn= 0.00D+00
 Coeff-Com: -0.682D-03-0.146D-02-0.132D-02 0.147D-01 0.111D+00 0.286D+00
 Coeff-Com:  0.592D+00
 Coeff:     -0.682D-03-0.146D-02-0.132D-02 0.147D-01 0.111D+00 0.286D+00
 Coeff:      0.592D+00
 Gap=     0.141 Goal=   None    Shift=    0.000
 RMSDP=7.64D-06 MaxDP=2.86D-04 DE=-5.64D-05 OVMax= 7.68D-04

 Cycle   8  Pass 1  IDiag  1:
 RMSU=  5.69D-06    CP:  1.01D+00  5.61D-01  7.40D-01  7.50D-01  9.28D-01
                    CP:  8.11D-01  8.96D-01
 E= -1311.17139040751     Delta-E=       -0.000003802794 Rises=F Damp=F
 DIIS: error= 2.55D-05 at cycle   8 NSaved=   8.
 NSaved= 8 IEnMin= 8 EnMin= -1311.17139040751     IErMin= 8 ErrMin= 2.55D-05
 ErrMax= 2.55D-05  0.00D+00 EMaxC= 1.00D-01 BMatC= 3.53D-07 BMatP= 4.17D-06
 IDIUse=1 WtCom= 1.00D+00 WtEn= 0.00D+00
 Coeff-Com:  0.434D-04-0.711D-03-0.197D-02 0.320D-03 0.158D-01 0.686D-01
 Coeff-Com:  0.268D+00 0.650D+00
 Coeff:      0.434D-04-0.711D-03-0.197D-02 0.320D-03 0.158D-01 0.686D-01
 Coeff:      0.268D+00 0.650D+00
 Gap=     0.141 Goal=   None    Shift=    0.000
 RMSDP=2.26D-06 MaxDP=1.28D-04 DE=-3.80D-06 OVMax= 2.40D-04

 Cycle   9  Pass 1  IDiag  1:
 RMSU=  1.67D-06    CP:  1.01D+00  5.61D-01  7.40D-01  7.50D-01  9.28D-01
                    CP:  8.19D-01  9.37D-01  8.31D-01
 E= -1311.17139072255     Delta-E=       -0.000000315034 Rises=F Damp=F
 DIIS: error= 9.17D-06 at cycle   9 NSaved=   9.
 NSaved= 9 IEnMin= 9 EnMin= -1311.17139072255     IErMin= 9 ErrMin= 9.17D-06
 ErrMax= 9.17D-06  0.00D+00 EMaxC= 1.00D-01 BMatC= 4.27D-08 BMatP= 3.53D-07
 IDIUse=1 WtCom= 1.00D+00 WtEn= 0.00D+00
 Coeff-Com:  0.581D-04-0.119D-03-0.743D-03-0.865D-03-0.338D-02 0.300D-02
 Coeff-Com:  0.666D-01 0.306D+00 0.629D+00
 Coeff:      0.581D-04-0.119D-03-0.743D-03-0.865D-03-0.338D-02 0.300D-02
 Coeff:      0.666D-01 0.306D+00 0.629D+00
 Gap=     0.141 Goal=   None    Shift=    0.000
 RMSDP=7.66D-07 MaxDP=1.98D-05 DE=-3.15D-07 OVMax= 7.93D-05

 Cycle  10  Pass 1  IDiag  1:
 RMSU=  6.20D-07    CP:  1.01D+00  5.61D-01  7.40D-01  7.50D-01  9.29D-01
                    CP:  8.22D-01  9.48D-01  8.65D-01  9.11D-01
 E= -1311.17139075632     Delta-E=       -0.000000033777 Rises=F Damp=F
 DIIS: error= 4.01D-06 at cycle  10 NSaved=  10.
 NSaved=10 IEnMin=10 EnMin= -1311.17139075632     IErMin=10 ErrMin= 4.01D-06
 ErrMax= 4.01D-06  0.00D+00 EMaxC= 1.00D-01 BMatC= 6.27D-09 BMatP= 4.27D-08
 IDIUse=1 WtCom= 1.00D+00 WtEn= 0.00D+00
 Coeff-Com:  0.367D-04-0.429D-04-0.415D-03-0.640D-03-0.362D-02-0.429D-02
 Coeff-Com:  0.177D-01 0.123D+00 0.357D+00 0.511D+00
 Coeff:      0.367D-04-0.429D-04-0.415D-03-0.640D-03-0.362D-02-0.429D-02
 Coeff:      0.177D-01 0.123D+00 0.357D+00 0.511D+00
 Gap=     0.141 Goal=   None    Shift=    0.000
 RMSDP=3.33D-07 MaxDP=1.70D-05 DE=-3.38D-08 OVMax= 2.82D-05

 Cycle  11  Pass 1  IDiag  1:
 RMSU=  1.98D-07    CP:  1.01D+00  5.61D-01  7.40D-01  7.50D-01  9.30D-01
                    CP:  8.22D-01  9.51D-01  8.85D-01  9.27D-01  7.78D-01
 E= -1311.17139076293     Delta-E=       -0.000000006610 Rises=F Damp=F
 DIIS: error= 6.52D-07 at cycle  11 NSaved=  11.
 NSaved=11 IEnMin=11 EnMin= -1311.17139076293     IErMin=11 ErrMin= 6.52D-07
 ErrMax= 6.52D-07  0.00D+00 EMaxC= 1.00D-01 BMatC= 2.13D-10 BMatP= 6.27D-09
 IDIUse=1 WtCom= 1.00D+00 WtEn= 0.00D+00
 Coeff-Com:  0.271D-05-0.141D-05-0.996D-04-0.850D-04-0.662D-03-0.125D-02
 Coeff-Com:  0.653D-03 0.901D-02 0.441D-01 0.130D+00 0.818D+00
 Coeff:      0.271D-05-0.141D-05-0.996D-04-0.850D-04-0.662D-03-0.125D-02
 Coeff:      0.653D-03 0.901D-02 0.441D-01 0.130D+00 0.818D+00
 Gap=     0.141 Goal=   None    Shift=    0.000
 RMSDP=9.25D-08 MaxDP=4.09D-06 DE=-6.61D-09 OVMax= 7.81D-06

 Cycle  12  Pass 1  IDiag  1:
 RMSU=  5.18D-08    CP:  1.01D+00  5.61D-01  7.40D-01  7.51D-01  9.30D-01
                    CP:  8.23D-01  9.53D-01  8.85D-01  9.44D-01  8.43D-01
                    CP:  9.71D-01
 E= -1311.17139076315     Delta-E=       -0.000000000219 Rises=F Damp=F
 DIIS: error= 2.46D-07 at cycle  12 NSaved=  12.
 NSaved=12 IEnMin=12 EnMin= -1311.17139076315     IErMin=12 ErrMin= 2.46D-07
 ErrMax= 2.46D-07  0.00D+00 EMaxC= 1.00D-01 BMatC= 3.39D-11 BMatP= 2.13D-10
 IDIUse=1 WtCom= 1.00D+00 WtEn= 0.00D+00
 Coeff-Com: -0.167D-05 0.459D-05-0.960D-05 0.798D-05-0.882D-04-0.429D-03
 Coeff-Com: -0.141D-02-0.626D-02-0.906D-02 0.115D-01 0.385D+00 0.621D+00
 Coeff:     -0.167D-05 0.459D-05-0.960D-05 0.798D-05-0.882D-04-0.429D-03
 Coeff:     -0.141D-02-0.626D-02-0.906D-02 0.115D-01 0.385D+00 0.621D+00
 Gap=     0.141 Goal=   None    Shift=    0.000
 RMSDP=3.00D-08 MaxDP=1.89D-06 DE=-2.19D-10 OVMax= 2.16D-06

 Cycle  13  Pass 1  IDiag  1:
 RMSU=  1.32D-08    CP:  1.01D+00  5.61D-01  7.40D-01  7.51D-01  9.30D-01
                    CP:  8.23D-01  9.53D-01  8.87D-01  9.48D-01  8.55D-01
                    CP:  1.06D+00  8.52D-01
 E= -1311.17139076321     Delta-E=       -0.000000000063 Rises=F Damp=F
 DIIS: error= 5.17D-08 at cycle  13 NSaved=  13.
 NSaved=13 IEnMin=13 EnMin= -1311.17139076321     IErMin=13 ErrMin= 5.17D-08
 ErrMax= 5.17D-08  0.00D+00 EMaxC= 1.00D-01 BMatC= 8.99D-13 BMatP= 3.39D-11
 IDIUse=1 WtCom= 1.00D+00 WtEn= 0.00D+00
 Coeff-Com: -0.762D-06 0.151D-05 0.206D-05 0.811D-05 0.160D-04-0.527D-04
 Coeff-Com: -0.422D-03-0.240D-02-0.497D-02-0.392D-02 0.727D-01 0.189D+00
 Coeff-Com:  0.750D+00
 Coeff:     -0.762D-06 0.151D-05 0.206D-05 0.811D-05 0.160D-04-0.527D-04
 Coeff:     -0.422D-03-0.240D-02-0.497D-02-0.392D-02 0.727D-01 0.189D+00
 Coeff:      0.750D+00
 Gap=     0.141 Goal=   None    Shift=    0.000
 RMSDP=6.35D-09 MaxDP=1.38D-07 DE=-6.28D-11 OVMax= 5.69D-07

 CoulSu:  requested number of processors reduced to:  18 ShMem   1 Linda.
 CoulSu:  requested number of processors reduced to:  17 ShMem   1 Linda.
 Error on total polarization charges =  0.03276
 SCF Done:  E(RB3LYP) =  -1311.17139076     A.U. after   13 cycles
            NFock= 13  Conv=0.64D-08     -V/T= 2.1658
 KE= 1.124718764682D+03 PE=-4.083186351034D+03 EE= 1.121483199494D+03
 SMD-CDS (non-electrostatic) energy       (kcal/mol) =      -2.42
 (included in total energy above)
 Leave Link  502 at Tue Sep 18 10:38:34 2018, MaxMem=   104857600 cpu:             614.6 elap:              26.1
 (Enter /home/miro_lab/software/g16/l601.exe)
 Copying SCF densities to generalized density rwf, IOpCl= 0 IROHF=0.

 **********************************************************************

            Population analysis using the SCF density.

 **********************************************************************

 Orbital symmetries:
       Occupied  (A) (A) (A) (A) (A) (A) (A) (A) (A) (A) (A) (A)
                 (A) (A) (A) (A) (A) (A) (A) (A) (A) (A) (A) (A)
                 (A) (A) (A) (A) (A) (A) (A) (A) (A) (A) (A) (A)
                 (A) (A) (A) (A) (A) (A) (A)
       Virtual   (A) (A) (A) (A) (A) (A) (A) (A) (A) (A) (A) (A)
                 (A) (A) (A) (A) (A) (A) (A) (A) (A) (A) (A) (A)
                 (A) (A) (A) (A) (A) (A) (A) (A) (A) (A) (A) (A)
                 (A) (A) (A) (A) (A) (A) (A) (A) (A) (A) (A) (A)
                 (A) (A) (A) (A) (A) (A) (A) (A) (A) (A) (A) (A)
                 (A) (A) (A) (A) (A) (A) (A) (A) (A) (A) (A) (A)
                 (A) (A) (A) (A) (A) (A) (A) (A) (A) (A) (A) (A)
                 (A) (A) (A) (A) (A) (A) (A) (A) (A) (A) (A) (A)
                 (A) (A) (A) (A) (A) (A) (A) (A) (A) (A) (A) (A)
                 (A) (A) (A) (A) (A) (A) (A) (A) (A) (A) (A) (A)
                 (A) (A) (A) (A) (A) (A) (A) (A) (A) (A) (A) (A)
                 (A) (A) (A) (A) (A) (A) (A) (A) (A) (A) (A) (A)
                 (A) (A) (A) (A) (A) (A) (A) (A) (A) (A) (A) (A)
                 (A) (A) (A) (A) (A) (A) (A) (A) (A) (A) (A) (A)
                 (A) (A) (A) (A) (A) (A) (A) (A) (A) (A) (A) (A)
                 (A) (A) (A) (A) (A) (A) (A) (A) (A) (A) (A) (A)
                 (A) (A) (A) (A) (A) (A) (A) (A) (A) (A) (A) (A)
                 (A) (A) (A) (A) (A) (A) (A) (A) (A) (A) (A) (A)
                 (A) (A) (A) (A) (A) (A) (A) (A) (A) (A) (A) (A)
                 (A)
 The electronic state is 1-A.
 Alpha  occ. eigenvalues -- -101.51109 -88.89802 -10.22073 -10.21114 -10.20104
 Alpha  occ. eigenvalues --  -10.18685  -9.44233  -7.97413  -7.20375  -7.19533
 Alpha  occ. eigenvalues --   -7.19532  -6.86559  -5.93645  -5.93277  -5.93078
 Alpha  occ. eigenvalues --   -4.89495  -4.87556  -4.87542  -1.94140  -1.93578
 Alpha  occ. eigenvalues --   -1.93568  -1.91944  -1.91944  -0.89731  -0.81123
 Alpha  occ. eigenvalues --   -0.75080  -0.74187  -0.68020  -0.57860  -0.56617
 Alpha  occ. eigenvalues --   -0.52857  -0.42713  -0.41683  -0.40892  -0.40089
 Alpha  occ. eigenvalues --   -0.37257  -0.35943  -0.33494  -0.33425  -0.27921
 Alpha  occ. eigenvalues --   -0.26413  -0.25861  -0.25007
 Alpha virt. eigenvalues --   -0.10951  -0.03723   0.01501   0.02917   0.06032
 Alpha virt. eigenvalues --    0.07794   0.09147   0.09649   0.11574   0.11972
 Alpha virt. eigenvalues --    0.14765   0.17549   0.17953   0.18154   0.18640
 Alpha virt. eigenvalues --    0.18921   0.19302   0.20677   0.21010   0.22139
 Alpha virt. eigenvalues --    0.24083   0.24697   0.24781   0.26037   0.29179
 Alpha virt. eigenvalues --    0.30513   0.31471   0.32378   0.32900   0.34317
 Alpha virt. eigenvalues --    0.34983   0.36430   0.37423   0.38608   0.38923
 Alpha virt. eigenvalues --    0.39253   0.41217   0.41307   0.41949   0.42786
 Alpha virt. eigenvalues --    0.43150   0.44380   0.44720   0.44896   0.45902
 Alpha virt. eigenvalues --    0.50748   0.52173   0.53861   0.55418   0.57953
 Alpha virt. eigenvalues --    0.59360   0.61939   0.63459   0.64976   0.65898
 Alpha virt. eigenvalues --    0.67682   0.70614   0.76576   0.78672   0.79799
 Alpha virt. eigenvalues --    0.80510   0.84373   0.85986   0.86279   0.86517
 Alpha virt. eigenvalues --    0.89151   0.90221   0.90927   0.93550   0.94125
 Alpha virt. eigenvalues --    0.94945   0.99576   1.00942   1.01066   1.04002
 Alpha virt. eigenvalues --    1.05357   1.06076   1.09034   1.11630   1.13980
 Alpha virt. eigenvalues --    1.17033   1.17491   1.18572   1.25323   1.28409
 Alpha virt. eigenvalues --    1.29728   1.30549   1.34315   1.35822   1.37256
 Alpha virt. eigenvalues --    1.39107   1.40017   1.41451   1.43447   1.44734
 Alpha virt. eigenvalues --    1.45840   1.49951   1.50670   1.52583   1.53093
 Alpha virt. eigenvalues --    1.54120   1.54810   1.57478   1.60146   1.60498
 Alpha virt. eigenvalues --    1.61490   1.63219   1.70106   1.71911   1.74136
 Alpha virt. eigenvalues --    1.74170   1.74893   1.78644   1.81058   1.82241
 Alpha virt. eigenvalues --    1.83469   1.87162   1.88200   1.90034   1.90300
 Alpha virt. eigenvalues --    1.94466   1.98209   1.98419   2.00062   2.02549
 Alpha virt. eigenvalues --    2.08834   2.08924   2.09817   2.09817   2.10073
 Alpha virt. eigenvalues --    2.12006   2.14322   2.14448   2.15067   2.16791
 Alpha virt. eigenvalues --    2.21867   2.22227   2.22500   2.23934   2.27586
 Alpha virt. eigenvalues --    2.32609   2.43714   2.47146   2.47569   2.48696
 Alpha virt. eigenvalues --    2.50012   2.53665   2.56203   2.56780   2.62044
 Alpha virt. eigenvalues --    2.65457   2.66735   2.68607   2.72061   2.75533
 Alpha virt. eigenvalues --    2.77895   2.80317   2.82963   2.86296   2.89078
 Alpha virt. eigenvalues --    2.92423   2.98937   3.01211   3.02658   3.03288
 Alpha virt. eigenvalues --    3.03551   3.04250   3.05337   3.06078   3.07813
 Alpha virt. eigenvalues --    3.11252   3.13507   3.15356   3.16334   3.18193
 Alpha virt. eigenvalues --    3.21222   3.24352   3.25358   3.28985   3.32836
 Alpha virt. eigenvalues --    3.35912   3.38041   3.39024   3.39460   3.43476
 Alpha virt. eigenvalues --    3.46406   3.49810   3.51657   3.54069   3.56437
 Alpha virt. eigenvalues --    3.61439   3.65272   3.66465   3.74240   3.95035
 Alpha virt. eigenvalues --    3.99625   4.05047   4.07698   4.17750   4.20860
 Alpha virt. eigenvalues --    4.22726   4.25887   4.35755   4.39407   4.41309
 Alpha virt. eigenvalues --    4.46493   4.62786   4.76554   4.79479   4.84486
 Alpha virt. eigenvalues --    5.05211   5.18036   8.84815   9.35988   9.41799
 Alpha virt. eigenvalues --   10.67961  10.68139  10.83716  20.06110  21.91740
 Alpha virt. eigenvalues --   22.29174  22.54178  22.72621  24.65929  34.48279
 Alpha virt. eigenvalues --   34.48695  34.64416  42.77450 117.80014
          Condensed to atoms (all electrons):
               1          2          3          4          5          6
     1  C    4.934638   0.586657  -0.057065  -0.097469   0.003046   0.003036
     2  C    0.586657   4.935920   0.418235  -0.065849  -0.027138   0.004646
     3  C   -0.057065   0.418235   5.024427   0.497271   0.412967  -0.026192
     4  C   -0.097469  -0.065849   0.497271   5.011551  -0.035330   0.405889
     5  H    0.003046  -0.027138   0.412967  -0.035330   0.457462  -0.002102
     6  H    0.003036   0.004646  -0.026192   0.405889  -0.002102   0.431200
     7  S    0.400977  -0.053925  -0.105354   0.420596   0.006767  -0.025889
     8  H    0.404879  -0.025539   0.005731   0.003338  -0.000119  -0.000017
     9  I   -0.002935  -0.006467   0.023671   0.047026  -0.001370  -0.002579
    10  Cl  -0.000073  -0.000262   0.001031   0.000503   0.000041  -0.000051
    11  H   -0.039077   0.420939  -0.037863   0.003741  -0.000894  -0.000092
               7          8          9         10         11
     1  C    0.400977   0.404879  -0.002935  -0.000073  -0.039077
     2  C   -0.053925  -0.025539  -0.006467  -0.000262   0.420939
     3  C   -0.105354   0.005731   0.023671   0.001031  -0.037863
     4  C    0.420596   0.003338   0.047026   0.000503   0.003741
     5  H    0.006767  -0.000119  -0.001370   0.000041  -0.000894
     6  H   -0.025889  -0.000017  -0.002579  -0.000051  -0.000092
     7  S   15.311522  -0.031058  -0.011036  -0.000032   0.009012
     8  H   -0.031058   0.454839  -0.000199  -0.000001  -0.003460
     9  I   -0.011036  -0.000199  24.673618   0.116733  -0.000179
    10  Cl  -0.000032  -0.000001   0.116733  17.206004  -0.000004
    11  H    0.009012  -0.003460  -0.000179  -0.000004   0.484587
 Mulliken charges:
               1
     1  C   -0.136615
     2  C   -0.187217
     3  C   -0.156860
     4  C   -0.191267
     5  H    0.186669
     6  H    0.212151
     7  S    0.078419
     8  H    0.191605
     9  I    0.163718
    10  Cl  -0.323890
    11  H    0.163288
 Sum of Mulliken charges =  -0.00000
 Mulliken charges with hydrogens summed into heavy atoms:
               1
     1  C    0.054990
     2  C   -0.023929
     3  C    0.029809
     4  C    0.020883
     7  S    0.078419
     9  I    0.163718
    10  Cl  -0.323890
 Electronic spatial extent (au):  <R**2>=           2155.7957
 Charge=             -0.0000 electrons
 Dipole moment (field-independent basis, Debye):
    X=              6.0493    Y=              1.3093    Z=             -0.8891  Tot=              6.2529
 Quadrupole moment (field-independent basis, Debye-Ang):
   XX=            -82.9852   YY=            -73.3052   ZZ=            -71.2475
   XY=              1.0120   XZ=              4.4731   YZ=              0.8167
 Traceless Quadrupole moment (field-independent basis, Debye-Ang):
   XX=             -7.1392   YY=              2.5408   ZZ=              4.5984
   XY=              1.0120   XZ=              4.4731   YZ=              0.8167
 Octapole moment (field-independent basis, Debye-Ang**2):
  XXX=            -21.0763  YYY=             10.8369  ZZZ=             -8.3437  XYY=            -11.0183
  XXY=              2.8146  XXZ=             12.9335  XZZ=             -2.4882  YZZ=              0.0968
  YYZ=             -3.3442  XYZ=              2.0839
 Hexadecapole moment (field-independent basis, Debye-Ang**3):
 XXXX=          -2479.0963 YYYY=           -319.3373 ZZZZ=           -238.9831 XXXY=            -16.6136
 XXXZ=             81.9587 YYYX=             10.6658 YYYZ=              3.0888 ZZZX=             21.2962
 ZZZY=              2.6271 XXYY=           -450.3594 XXZZ=           -403.8410 YYZZ=            -91.3177
 XXYZ=              3.9365 YYXZ=              5.9278 ZZXY=             -3.7285
 N-N= 5.258129960947D+02 E-N=-4.083186342909D+03  KE= 1.124718764682D+03
 No NMR shielding tensors so no spin-rotation constants.
 Leave Link  601 at Tue Sep 18 10:38:34 2018, MaxMem=   104857600 cpu:               3.5 elap:               0.2
 (Enter /home/miro_lab/software/g16/l701.exe)
 ... and contract with generalized density number  0.
 Compute integral first derivatives.
 R6Disp: Adding Grimme-D3(BJ) dispersion energy 1st derivatives to the gradient.
 PrsmSu:  requested number of processors reduced to:   6 ShMem   1 Linda.
 PrsmSu:  requested number of processors reduced to:  18 ShMem   1 Linda.
   1 Symmetry operations used in ECPInt.
 ECPInt:  NShTT=    5253 NPrTT=   18162 LenC2=    4923 LenP2D=   12910.
 LDataN:  DoStor=T MaxTD1= 8 Len=  415
 D1PCM: PCM CHGder 1st derivatives, ID1Alg=3 FixD1E=F DoIter=F DoCFld=F I1PDM=0.
 GePol: Maximum number of non-zero 1st derivatives   =     390
 CoulSu:  requested number of processors reduced to:  17 ShMem   1 Linda.
 CoulSu:  requested number of processors reduced to:  17 ShMem   1 Linda.
 CoulSu:  requested number of processors reduced to:  17 ShMem   1 Linda.
 CoulSu:  requested number of processors reduced to:  17 ShMem   1 Linda.
 CoulSu:  requested number of processors reduced to:   7 ShMem   1 Linda.
 CoulSu:  requested number of processors reduced to:   7 ShMem   1 Linda.
 CoulSu:  requested number of processors reduced to:  17 ShMem   1 Linda.
 CoulSu:  requested number of processors reduced to:  17 ShMem   1 Linda.
 Leave Link  701 at Tue Sep 18 10:38:36 2018, MaxMem=   104857600 cpu:              31.6 elap:               1.6
 (Enter /home/miro_lab/software/g16/l702.exe)
 L702 exits ... SP integral derivatives will be done elsewhere.
 Leave Link  702 at Tue Sep 18 10:38:36 2018, MaxMem=   104857600 cpu:               0.5 elap:               0.0
 (Enter /home/miro_lab/software/g16/l703.exe)
 Integral derivatives from FoFJK, PRISM(SPDF).
 Compute integral first derivatives, UseDBF=F ICtDFT=           0.
 Calling FoFJK, ICntrl=      2127 FMM=F ISym2X=0 I1Cent= 0 IOpClX= 0 NMat=1 NMatS=1 NMatT=0.
 FoFJK:  IHMeth= 1 ICntrl=    2127 DoSepK=F KAlg= 0 I1Cent=           0 FoldK=F
 IRaf=         0 NMat=       1 IRICut=       1 DoRegI=T DoRafI=F ISym2E= 0 IDoP0=0 IntGTp=1.
 FoFCou: FMM=F IPFlag=           0 FMFlag=      100000 FMFlg1=         800
         NFxFlg=           0 DoJE=F BraDBF=F KetDBF=F FulRan=T
         wScrn=  0.000000 ICntrl=      2127 IOpCl=  0 I1Cent=           0 NGrid=           0
         NMat0=    1 NMatS0=      1 NMatT0=    0 NMatD0=    1 NMtDS0=    0 NMtDT0=    0
 Symmetry not used in FoFCou.
 CoulSu:  requested number of processors reduced to:  18 ShMem   1 Linda.
 Defaulting to unpruned grid for atomic number  53.
 Defaulting to unpruned grid for atomic number  53.
 Defaulting to unpruned grid for atomic number  53.
 Defaulting to unpruned grid for atomic number  53.
 Defaulting to unpruned grid for atomic number  53.
 Defaulting to unpruned grid for atomic number  53.
 Defaulting to unpruned grid for atomic number  53.
 Defaulting to unpruned grid for atomic number  53.
 Defaulting to unpruned grid for atomic number  53.
 Defaulting to unpruned grid for atomic number  53.
 Defaulting to unpruned grid for atomic number  53.
 Defaulting to unpruned grid for atomic number  53.
 Defaulting to unpruned grid for atomic number  53.
 Defaulting to unpruned grid for atomic number  53.
 Defaulting to unpruned grid for atomic number  53.
 Defaulting to unpruned grid for atomic number  53.
 Defaulting to unpruned grid for atomic number  53.
 Defaulting to unpruned grid for atomic number  53.
 Defaulting to unpruned grid for atomic number  53.
 Defaulting to unpruned grid for atomic number  53.
 Defaulting to unpruned grid for atomic number  53.
 Defaulting to unpruned grid for atomic number  53.
 Defaulting to unpruned grid for atomic number  53.
 Defaulting to unpruned grid for atomic number  53.
 Leave Link  703 at Tue Sep 18 10:38:42 2018, MaxMem=   104857600 cpu:             124.2 elap:               6.6
 (Enter /home/miro_lab/software/g16/l716.exe)
 Dipole        = 2.37995936D+00 5.15124460D-01-3.49804926D-01
 ***** Axes restored to original set *****
 -------------------------------------------------------------------
 Center     Atomic                   Forces (Hartrees/Bohr)
 Number     Number              X              Y              Z
 -------------------------------------------------------------------
      1        6          -0.000290964   -0.000065694   -0.000534824
      2        6          -0.000043751   -0.000467691   -0.000257826
      3        6           0.000360483   -0.000509375    0.000160687
      4        6           0.000411864    0.000358855    0.000534328
      5        1          -0.000214202    0.000380698   -0.000231892
      6        1          -0.000197175   -0.000187681   -0.000449817
      7       16          -0.000020631    0.000096457    0.000057600
      8        1           0.000233480   -0.000041239    0.000456619
      9       53          -0.000477519   -0.000064453    0.000159515
     10       17           0.000215024    0.000049110   -0.000100237
     11        1           0.000023391    0.000451013    0.000205847
 -------------------------------------------------------------------
 Cartesian Forces:  Max     0.000534824 RMS     0.000302651
 Leave Link  716 at Tue Sep 18 10:38:42 2018, MaxMem=   104857600 cpu:               1.1 elap:               0.1
 (Enter /home/miro_lab/software/g16/l103.exe)

 GradGradGradGradGradGradGradGradGradGradGradGradGradGradGradGradGradGrad
 Berny optimization.
 FormGI is forming the generalized inverse of G from B-inverse, IUseBI=4.
 Internal  Forces:  Max     0.000525247 RMS     0.000150622
 Search for a local minimum.
 Step number   1 out of a maximum of   63
 All quantities printed in internal units (Hartrees-Bohrs-Radians)
 RMS Force = .15062D-03 SwitMx=.10000D-02 MixMth= 2
 Mixed Optimization -- En-DIIS/RFO-DIIS
 Second derivative matrix not updated -- first step.
 ITU=  0
     Eigenvalues ---    0.00230   0.00230   0.01876   0.02002   0.02230
     Eigenvalues ---    0.02344   0.02787   0.03752   0.04194   0.05392
     Eigenvalues ---    0.11331   0.15882   0.15906   0.15974   0.16000
     Eigenvalues ---    0.19288   0.21239   0.22415   0.32072   0.32403
     Eigenvalues ---    0.36056   0.36077   0.36179   0.36281   0.40743
     Eigenvalues ---    0.43551   0.50412
 RFO step:  Lambda=-5.26976816D-06 EMin= 2.30000000D-03
 Linear search not attempted -- first point.
 Iteration  1 RMS(Cart)=  0.00126958 RMS(Int)=  0.00000120
 Iteration  2 RMS(Cart)=  0.00000107 RMS(Int)=  0.00000021
 Iteration  3 RMS(Cart)=  0.00000000 RMS(Int)=  0.00000021
 ITry= 1 IFail=0 DXMaxC= 4.21D-03 DCOld= 1.00D+10 DXMaxT= 3.00D-01 DXLimC= 3.00D+00 Rises=F
 Variable       Old X    -DE/DX   Delta X   Delta X   Delta X     New X
                                 (Linear)    (Quad)   (Total)
    R1        2.57653  -0.00002   0.00000  -0.00002  -0.00002   2.57651
    R2        3.25464  -0.00013   0.00000  -0.00037  -0.00037   3.25426
    R3        2.03741   0.00051   0.00000   0.00141   0.00141   2.03882
    R4        2.68888  -0.00008   0.00000  -0.00020  -0.00020   2.68868
    R5        2.03961   0.00050   0.00000   0.00138   0.00138   2.04099
    R6        2.61240  -0.00019   0.00000  -0.00042  -0.00042   2.61198
    R7        2.03994   0.00049   0.00000   0.00137   0.00137   2.04131
    R8        5.66640   0.00013   0.00000   0.00475   0.00475   5.67115
    R9        2.03644   0.00053   0.00000   0.00145   0.00145   2.03789
   R10        3.25449  -0.00003   0.00000  -0.00011  -0.00011   3.25437
   R11        5.56832   0.00015   0.00000   0.00515   0.00515   5.57346
   R12        4.59909  -0.00024   0.00000  -0.00208  -0.00208   4.59700
    A1        1.95591  -0.00000   0.00000   0.00003   0.00003   1.95593
    A2        2.23374  -0.00003   0.00000  -0.00018  -0.00018   2.23355
    A3        2.09339   0.00003   0.00000   0.00016   0.00016   2.09355
    A4        1.96280   0.00000   0.00000   0.00001   0.00001   1.96282
    A5        2.15726   0.00003   0.00000   0.00016   0.00016   2.15742
    A6        2.16311  -0.00003   0.00000  -0.00018  -0.00018   2.16293
    A7        1.96310  -0.00001   0.00000  -0.00010  -0.00010   1.96299
    A8        2.17081  -0.00004   0.00000  -0.00026  -0.00026   2.17056
    A9        1.89091  -0.00001   0.00000  -0.00010  -0.00010   1.89081
   A10        2.14796   0.00005   0.00000   0.00038   0.00038   2.14834
   A11        1.56612  -0.00001   0.00000  -0.00037  -0.00037   1.56574
   A12        2.23028  -0.00004   0.00000  -0.00016  -0.00016   2.23012
   A13        1.94153   0.00004   0.00000   0.00018   0.00018   1.94170
   A14        2.10442   0.00000   0.00000   0.00005   0.00005   2.10447
   A15        1.58866  -0.00004   0.00000  -0.00042  -0.00042   1.58824
   A16        1.88232  -0.00001   0.00000  -0.00021  -0.00021   1.88211
   A17        1.60126  -0.00003   0.00000  -0.00011  -0.00011   1.60115
   A18        3.11941   0.00001   0.00000   0.00212   0.00212   3.12153
   A19        3.17120  -0.00001   0.00000   0.00204   0.00204   3.17324
   A20        2.76449   0.00004   0.00000   0.00039   0.00039   2.76488
   A21        3.45418  -0.00004   0.00000  -0.00014  -0.00014   3.45403
    D1       -0.00208   0.00001   0.00000   0.00028   0.00028  -0.00180
    D2        3.13367   0.00000   0.00000   0.00013   0.00013   3.13380
    D3       -3.12475   0.00000   0.00000   0.00007   0.00007  -3.12469
    D4        0.01100  -0.00000   0.00000  -0.00009  -0.00009   0.01092
    D5       -0.00767  -0.00000   0.00000  -0.00011  -0.00011  -0.00778
    D6        3.11671   0.00000   0.00000   0.00008   0.00008   3.11679
    D7        0.01407  -0.00001   0.00000  -0.00035  -0.00035   0.01372
    D8       -3.07375  -0.00003   0.00000  -0.00067  -0.00067  -3.07442
    D9        1.41597   0.00001   0.00000   0.00002   0.00002   1.41599
   D10       -3.12166  -0.00001   0.00000  -0.00020  -0.00020  -3.12186
   D11        0.07370  -0.00002   0.00000  -0.00052  -0.00052   0.07318
   D12       -1.71976   0.00002   0.00000   0.00017   0.00017  -1.71959
   D13       -3.03367  -0.00002   0.00000  -0.00036  -0.00036  -3.03403
   D14       -0.01956   0.00001   0.00000   0.00026   0.00026  -0.01931
   D15        0.05496  -0.00000   0.00000  -0.00007  -0.00007   0.05490
   D16        3.06907   0.00002   0.00000   0.00055   0.00055   3.06962
   D17        0.01559  -0.00000   0.00000  -0.00008  -0.00008   0.01550
   D18        3.04021   0.00002   0.00000   0.00046   0.00046   3.04067
   D19       -1.45851  -0.00003   0.00000  -0.00018  -0.00018  -1.45869
   D20        3.02840   0.00002   0.00000   0.00971   0.00971   3.03811
         Item               Value     Threshold  Converged?
 Maximum Force            0.000525     0.000450     NO 
 RMS     Force            0.000151     0.000300     YES
 Maximum Displacement     0.004210     0.001800     NO 
 RMS     Displacement     0.001269     0.001200     NO 
 Predicted change in Energy=-2.634868D-06
 Lowest energy point so far.  Saving SCF results.
 GradGradGradGradGradGradGradGradGradGradGradGradGradGradGradGradGradGrad

 Leave Link  103 at Tue Sep 18 10:38:43 2018, MaxMem=   104857600 cpu:               1.6 elap:               0.1
 (Enter /home/miro_lab/software/g16/l202.exe)
                          Input orientation:                          
 ---------------------------------------------------------------------
 Center     Atomic      Atomic             Coordinates (Angstroms)
 Number     Number       Type             X           Y           Z
 ---------------------------------------------------------------------
      1          6           0        2.955112    0.182289    1.114449
      2          6           0        2.442619    1.337024    0.601725
      3          6           0        1.810780    1.139247   -0.657634
      4          6           0        1.845946   -0.181161   -1.064773
      5          1           0        1.393419    1.931698   -1.261535
      6          1           0        1.526248   -0.589683   -2.010212
      7         16           0        2.676893   -1.165008    0.078617
      8          1           0        3.468657    0.043144    2.053030
      9         53           0       -0.952844    0.075548   -0.170603
     10         17           0       -3.278081   -0.232615    0.474369
     11          1           0        2.505672    2.292633    1.101056
 ---------------------------------------------------------------------
                    Distance matrix (angstroms):
                    1          2          3          4          5
     1  C    0.000000
     2  C    1.363432   0.000000
     3  C    2.316364   1.422787   0.000000
     4  C    2.472116   2.331978   1.382200   0.000000
     5  H    3.338355   2.219504   1.080215   2.169716   0.000000
     6  H    3.521520   3.372559   2.213509   1.078403   2.633538
     7  S    1.722082   2.566844   2.569399   1.722141   3.610111
     8  H    1.078899   2.198446   3.361205   3.521960   4.342763
     9  I    4.115200   3.703644   3.001044   2.949350   3.184395
    10  Cl   6.279694   5.933498   5.390727   5.350445   5.433279
    11  H    2.157713   1.080044   2.214986   3.353462   2.636137
                    6          7          8          9         10
     6  H    0.000000
     7  S    2.453200   0.000000
     8  H    4.547896   2.446391   0.000000
     9  I    3.157941   3.843967   4.949269   0.000000
    10  Cl   5.420537   6.040504   6.934456   2.432629   0.000000
    11  H    4.352816   3.609706   2.625604   4.300455   6.342036
                   11
    11  H    0.000000
 Stoichiometry    C4H4ClIS
 Framework group  C1[X(C4H4ClIS)]
 Deg. of freedom    27
 Full point group                 C1      NOp   1
 RotChk:  IX=0 Diff= 1.99D-03
 Largest Abelian subgroup         C1      NOp   1
 Largest concise Abelian subgroup C1      NOp   1
                         Standard orientation:                         
 ---------------------------------------------------------------------
 Center     Atomic      Atomic             Coordinates (Angstroms)
 Number     Number       Type             X           Y           Z
 ---------------------------------------------------------------------
      1          6           0        2.957306    0.185029    1.111267
      2          6           0        2.444891    1.338434    0.595482
      3          6           0        1.812330    1.137216   -0.662969
      4          6           0        1.846884   -0.184371   -1.066315
      5          1           0        1.394890    1.928048   -1.268934
      6          1           0        1.526565   -0.595522   -2.010404
      7         16           0        2.678135   -1.165167    0.079473
      8          1           0        3.471302    0.048436    2.049975
      9         53           0       -0.951358    0.075765   -0.171420
     10         17           0       -3.276348   -0.229832    0.475661
     11          1           0        2.508495    2.295461    1.092020
 ---------------------------------------------------------------------
 Rotational constants (GHZ):           3.2806343           0.4785221           0.4642762
 Leave Link  202 at Tue Sep 18 10:38:43 2018, MaxMem=   104857600 cpu:               0.5 elap:               0.0
 (Enter /home/miro_lab/software/g16/l301.exe)
 Standard basis: def2TZVP (5D, 7F)
 Ernie: Thresh=  0.10000D-02 Tol=  0.10000D-05 Strict=F.
 There are   311 symmetry adapted cartesian basis functions of A   symmetry.
 There are   272 symmetry adapted basis functions of A   symmetry.
   272 basis functions,   483 primitive gaussians,   311 cartesian basis functions
    43 alpha electrons       43 beta electrons
       nuclear repulsion energy       525.7487809336 Hartrees.
 IExCor=  402 DFT=T Ex+Corr=B3LYP ExCW=0 ScaHFX=  0.200000
 ScaDFX=  0.800000  0.720000  1.000000  0.810000 ScalE2=  1.000000  1.000000
 IRadAn=      5 IRanWt=     -1 IRanGd=            0 ICorTp=0 IEmpDi=141
 NAtoms=   11 NActive=   11 NUniq=   11 SFac= 1.00D+00 NAtFMM=   60 NAOKFM=F Big=F
 Integral buffers will be    131072 words long.
 Raffenetti 2 integral format.
 Two-electron integral symmetry is turned on.
 R6Disp:  Grimme-D3(BJ) Dispersion energy=       -0.0264239476 Hartrees.
 Nuclear repulsion after empirical dispersion term =      525.7223569861 Hartrees.
 ------------------------------------------------------------------------------
 Polarizable Continuum Model (PCM)
 =================================
 Model                : PCM.
 Atomic radii         : SMD-Coulomb.
 Polarization charges : Total charges.
 Charge compensation  : None.
 Solution method      : On-the-fly selection.
 Cavity type          : VdW (van der Waals Surface) (Alpha=1.000).
 Cavity algorithm     : GePol (No added spheres)
                        Default sphere list used, NSphG=   11.
                        Lebedev-Laikov grids with approx.  5.0 points / Ang**2.
                        Smoothing algorithm: York/Karplus (Gamma=1.0000).
                        Polarization charges: spherical gaussians, with
                                              point-specific exponents (IZeta= 3).
                        Self-potential: point-specific (ISelfS= 7).
                        Self-field    : sphere-specific E.n sum rule (ISelfD= 2).
 1st derivatives      : Analytical E(r).r(x)/FMM algorithm (CHGder, D1EAlg=3).
                        Cavity 1st derivative terms included.
 Solvent              : Dichloromethane, Eps=   8.930000 Eps(inf)=   2.028346
 ------------------------------------------------------------------------------
 Spheres list:
 ISph  on   Nord     Re0    Alpha      Xe            Ye            Ze
    1   C      1    1.8500  1.000      2.957306      0.185029      1.111267
    2   C      2    1.8500  1.000      2.444891      1.338434      0.595482
    3   C      3    1.8500  1.000      1.812330      1.137216     -0.662969
    4   C      4    1.8500  1.000      1.846884     -0.184371     -1.066315
    5   H      5    1.2000  1.000      1.394890      1.928048     -1.268934
    6   H      6    1.2000  1.000      1.526565     -0.595522     -2.010404
    7   S      7    2.4900  1.000      2.678135     -1.165167      0.079473
    8   H      8    1.2000  1.000      3.471302      0.048436      2.049975
    9   I      9    1.9800  1.000     -0.951358      0.075765     -0.171420
   10  Cl     10    2.3800  1.000     -3.276348     -0.229832      0.475661
   11   H     11    1.2000  1.000      2.508495      2.295461      1.092020
 ------------------------------------------------------------------------------
 GePol: Number of generator spheres                  =      11
 GePol: Total number of spheres                      =      11
 GePol: Number of exposed spheres                    =      11 (100.00%)
 GePol: Number of points                             =    1396
 GePol: Average weight of points                     =       0.14
 GePol: Minimum weight of points                     =   0.42D-07
 GePol: Maximum weight of points                     =    0.19854
 GePol: Number of points with low weight             =      44
 GePol: Fraction of low-weight points (<1% of avg)   =       3.15%
 GePol: Cavity surface area                          =    196.045 Ang**2
 GePol: Cavity volume                                =    180.357 Ang**3
 ------------------------------------------------------------------------------
 Atomic radii for non-electrostatic terms: SMD-CDS.
 ------------------------------------------------------------------------------
 PCM non-electrostatic energy =        -0.0038608400 Hartrees.
 Nuclear repulsion after PCM non-electrostatic terms =      525.7184961461 Hartrees.
 Leave Link  301 at Tue Sep 18 10:38:43 2018, MaxMem=   104857600 cpu:               1.9 elap:               0.1
 (Enter /home/miro_lab/software/g16/l302.exe)
 NPDir=0 NMtPBC=     1 NCelOv=     1 NCel=       1 NClECP=     1 NCelD=      1
         NCelK=      1 NCelE2=     1 NClLst=     1 CellRange=     0.0.
 One-electron integrals computed using PRISM.
 One-electron integral symmetry used in STVInt
 PrsmSu:  requested number of processors reduced to:   7 ShMem   1 Linda.
   1 Symmetry operations used in ECPInt.
 ECPInt:  NShTT=    5253 NPrTT=   18162 LenC2=    4923 LenP2D=   12909.
 LDataN:  DoStor=T MaxTD1= 7 Len=  274
 Number of processors reduced to  17 by ecpmxn.
 NBasis=   272 RedAO= T EigKep=  7.71D-05  NBF=   272
 NBsUse=   272 1.00D-06 EigRej= -1.00D+00 NBFU=   272
 Precomputing XC quadrature grid using
 IXCGrd= 4 IRadAn=           5 IRanWt=          -1 IRanGd=           0 AccXCQ= 0.00D+00.
 Defaulting to unpruned grid for atomic number  53.
 Generated NRdTot=       0 NPtTot=           0 NUsed=           0 NTot=          32
 NSgBfM=   302   301   301   301   302 MxSgAt=    11 MxSgA2=    11.
 Leave Link  302 at Tue Sep 18 10:38:43 2018, MaxMem=   104857600 cpu:               9.3 elap:               0.5
 (Enter /home/miro_lab/software/g16/l303.exe)
 DipDrv:  MaxL=1.
 Leave Link  303 at Tue Sep 18 10:38:43 2018, MaxMem=   104857600 cpu:               1.6 elap:               0.1
 (Enter /home/miro_lab/software/g16/l401.exe)
 Initial guess from the checkpoint file:  "01.chk"
 B after Tr=     0.000000    0.000000    0.000000
         Rot=    1.000000    0.000639   -0.000026    0.000000 Ang=   0.07 deg.
 Guess basis will be translated and rotated to current coordinates.
 JPrj=2 DoOrth=T DoCkMO=T.
 Leave Link  401 at Tue Sep 18 10:38:44 2018, MaxMem=   104857600 cpu:               3.8 elap:               0.2
 (Enter /home/miro_lab/software/g16/l502.exe)
 Integral symmetry usage will be decided dynamically.
 Closed shell SCF:
 Using DIIS extrapolation, IDIIS=  1040.
 NGot=   104857600 LenX=   104653941 LenY=   104556779
 Requested convergence on RMS density matrix=1.00D-08 within 128 cycles.
 Requested convergence on MAX density matrix=1.00D-06.
 Requested convergence on             energy=1.00D-06.
 No special actions if energy rises.
 Fock matrices will be formed incrementally for  20 cycles.

 Cycle   1  Pass 1  IDiag  1:
 FoFJK:  IHMeth= 1 ICntrl=       0 DoSepK=F KAlg= 0 I1Cent=           0 FoldK=F
 IRaf= 900000000 NMat=       1 IRICut=       1 DoRegI=T DoRafI=F ISym2E= 0 IDoP0=0 IntGTp=1.
 FoFCou: FMM=F IPFlag=           0 FMFlag=      100000 FMFlg1=           0
         NFxFlg=           0 DoJE=F BraDBF=F KetDBF=F FulRan=T
         wScrn=  0.000000 ICntrl=         0 IOpCl=  0 I1Cent=           0 NGrid=           0
         NMat0=    1 NMatS0=      1 NMatT0=    0 NMatD0=    1 NMtDS0=    0 NMtDT0=    0
 Symmetry not used in FoFCou.
 Defaulting to unpruned grid for atomic number  53.
 Defaulting to unpruned grid for atomic number  53.
 Defaulting to unpruned grid for atomic number  53.
 Defaulting to unpruned grid for atomic number  53.
 Defaulting to unpruned grid for atomic number  53.
 Defaulting to unpruned grid for atomic number  53.
 Defaulting to unpruned grid for atomic number  53.
 Defaulting to unpruned grid for atomic number  53.
 Defaulting to unpruned grid for atomic number  53.
 Defaulting to unpruned grid for atomic number  53.
 Defaulting to unpruned grid for atomic number  53.
 Defaulting to unpruned grid for atomic number  53.
 Defaulting to unpruned grid for atomic number  53.
 Defaulting to unpruned grid for atomic number  53.
 Defaulting to unpruned grid for atomic number  53.
 Defaulting to unpruned grid for atomic number  53.
 Defaulting to unpruned grid for atomic number  53.
 Defaulting to unpruned grid for atomic number  53.
 Defaulting to unpruned grid for atomic number  53.
 Defaulting to unpruned grid for atomic number  53.
 Defaulting to unpruned grid for atomic number  53.
 Defaulting to unpruned grid for atomic number  53.
 Defaulting to unpruned grid for atomic number  53.
 Defaulting to unpruned grid for atomic number  53.
 CoulSu:  requested number of processors reduced to:  17 ShMem   1 Linda.
 Inv3:  Mode=1 IEnd=     5846448.
 Iteration    1 A*A^-1 deviation from unit magnitude is 6.44D-15 for    789.
 Iteration    1 A*A^-1 deviation from orthogonality  is 2.64D-15 for   1030    826.
 Iteration    1 A^-1*A deviation from unit magnitude is 5.33D-15 for    540.
 Iteration    1 A^-1*A deviation from orthogonality  is 7.14D-15 for    591    372.
 CoulSu:  requested number of processors reduced to:  17 ShMem   1 Linda.
 CoulSu:  requested number of processors reduced to:  17 ShMem   1 Linda.
 E= -1311.17139220921    
 DIIS: error= 1.20D-04 at cycle   1 NSaved=   1.
 NSaved= 1 IEnMin= 1 EnMin= -1311.17139220921     IErMin= 1 ErrMin= 1.20D-04
 ErrMax= 1.20D-04  0.00D+00 EMaxC= 1.00D-01 BMatC= 1.95D-06 BMatP= 1.95D-06
 IDIUse=3 WtCom= 9.99D-01 WtEn= 1.20D-03
 Coeff-Com:  0.100D+01
 Coeff-En:   0.100D+01
 Coeff:      0.100D+01
 Gap=     0.805 Goal=   None    Shift=    0.000
 RMSDP=7.26D-06 MaxDP=2.29D-04              OVMax= 7.73D-04

 Cycle   2  Pass 1  IDiag  1:
 RMSU=  7.26D-06    CP:  1.00D+00
 E= -1311.17139402698     Delta-E=       -0.000001817773 Rises=F Damp=F
 DIIS: error= 1.29D-05 at cycle   2 NSaved=   2.
 NSaved= 2 IEnMin= 2 EnMin= -1311.17139402698     IErMin= 2 ErrMin= 1.29D-05
 ErrMax= 1.29D-05  0.00D+00 EMaxC= 1.00D-01 BMatC= 6.68D-08 BMatP= 1.95D-06
 IDIUse=1 WtCom= 1.00D+00 WtEn= 0.00D+00
 Coeff-Com:  0.399D-01 0.960D+00
 Coeff:      0.399D-01 0.960D+00
 Gap=     0.141 Goal=   None    Shift=    0.000
 RMSDP=1.92D-06 MaxDP=6.55D-05 DE=-1.82D-06 OVMax= 1.40D-04

 Cycle   3  Pass 1  IDiag  1:
 RMSU=  1.75D-06    CP:  1.00D+00  1.11D+00
 E= -1311.17139404671     Delta-E=       -0.000000019731 Rises=F Damp=F
 DIIS: error= 1.19D-05 at cycle   3 NSaved=   3.
 NSaved= 3 IEnMin= 3 EnMin= -1311.17139404671     IErMin= 3 ErrMin= 1.19D-05
 ErrMax= 1.19D-05  0.00D+00 EMaxC= 1.00D-01 BMatC= 7.26D-08 BMatP= 6.68D-08
 IDIUse=1 WtCom= 1.00D+00 WtEn= 0.00D+00
 Coeff-Com: -0.799D-02 0.513D+00 0.495D+00
 Coeff:     -0.799D-02 0.513D+00 0.495D+00
 Gap=     0.141 Goal=   None    Shift=    0.000
 RMSDP=8.78D-07 MaxDP=5.22D-05 DE=-1.97D-08 OVMax= 8.79D-05

 Cycle   4  Pass 1  IDiag  1:
 RMSU=  5.72D-07    CP:  1.00D+00  1.13D+00  6.31D-01
 E= -1311.17139410586     Delta-E=       -0.000000059144 Rises=F Damp=F
 DIIS: error= 3.33D-06 at cycle   4 NSaved=   4.
 NSaved= 4 IEnMin= 4 EnMin= -1311.17139410586     IErMin= 4 ErrMin= 3.33D-06
 ErrMax= 3.33D-06  0.00D+00 EMaxC= 1.00D-01 BMatC= 5.57D-09 BMatP= 6.68D-08
 IDIUse=1 WtCom= 1.00D+00 WtEn= 0.00D+00
 Coeff-Com: -0.669D-02 0.179D+00 0.252D+00 0.577D+00
 Coeff:     -0.669D-02 0.179D+00 0.252D+00 0.577D+00
 Gap=     0.141 Goal=   None    Shift=    0.000
 RMSDP=3.04D-07 MaxDP=9.40D-06 DE=-5.91D-08 OVMax= 3.85D-05

 Cycle   5  Pass 1  IDiag  1:
 RMSU=  2.29D-07    CP:  1.00D+00  1.14D+00  7.08D-01  7.84D-01
 E= -1311.17139411070     Delta-E=       -0.000000004843 Rises=F Damp=F
 DIIS: error= 1.54D-06 at cycle   5 NSaved=   5.
 NSaved= 5 IEnMin= 5 EnMin= -1311.17139411070     IErMin= 5 ErrMin= 1.54D-06
 ErrMax= 1.54D-06  0.00D+00 EMaxC= 1.00D-01 BMatC= 1.12D-09 BMatP= 5.57D-09
 IDIUse=1 WtCom= 1.00D+00 WtEn= 0.00D+00
 Coeff-Com: -0.246D-02 0.103D-01 0.512D-01 0.338D+00 0.602D+00
 Coeff:     -0.246D-02 0.103D-01 0.512D-01 0.338D+00 0.602D+00
 Gap=     0.141 Goal=   None    Shift=    0.000
 RMSDP=1.21D-07 MaxDP=3.74D-06 DE=-4.84D-09 OVMax= 1.30D-05

 Cycle   6  Pass 1  IDiag  1:
 RMSU=  8.04D-08    CP:  1.00D+00  1.14D+00  7.13D-01  8.71D-01  6.89D-01
 E= -1311.17139411189     Delta-E=       -0.000000001189 Rises=F Damp=F
 DIIS: error= 3.33D-07 at cycle   6 NSaved=   6.
 NSaved= 6 IEnMin= 6 EnMin= -1311.17139411189     IErMin= 6 ErrMin= 3.33D-07
 ErrMax= 3.33D-07  0.00D+00 EMaxC= 1.00D-01 BMatC= 5.63D-11 BMatP= 1.12D-09
 IDIUse=1 WtCom= 1.00D+00 WtEn= 0.00D+00
 Coeff-Com: -0.382D-03-0.137D-01-0.954D-03 0.983D-01 0.266D+00 0.651D+00
 Coeff:     -0.382D-03-0.137D-01-0.954D-03 0.983D-01 0.266D+00 0.651D+00
 Gap=     0.141 Goal=   None    Shift=    0.000
 RMSDP=4.05D-08 MaxDP=1.68D-06 DE=-1.19D-09 OVMax= 3.26D-06

 Cycle   7  Pass 1  IDiag  1:
 RMSU=  2.22D-08    CP:  1.00D+00  1.14D+00  7.19D-01  8.91D-01  7.73D-01
                    CP:  7.81D-01
 E= -1311.17139411193     Delta-E=       -0.000000000045 Rises=F Damp=F
 DIIS: error= 1.28D-07 at cycle   7 NSaved=   7.
 NSaved= 7 IEnMin= 7 EnMin= -1311.17139411193     IErMin= 7 ErrMin= 1.28D-07
 ErrMax= 1.28D-07  0.00D+00 EMaxC= 1.00D-01 BMatC= 9.18D-12 BMatP= 5.63D-11
 IDIUse=1 WtCom= 1.00D+00 WtEn= 0.00D+00
 Coeff-Com:  0.376D-05-0.861D-02-0.569D-02 0.236D-01 0.911D-01 0.354D+00
 Coeff-Com:  0.545D+00
 Coeff:      0.376D-05-0.861D-02-0.569D-02 0.236D-01 0.911D-01 0.354D+00
 Coeff:      0.545D+00
 Gap=     0.141 Goal=   None    Shift=    0.000
 RMSDP=1.13D-08 MaxDP=4.30D-07 DE=-4.50D-11 OVMax= 9.86D-07

 Cycle   8  Pass 1  IDiag  1:
 RMSU=  5.99D-09    CP:  1.00D+00  1.14D+00  7.21D-01  8.94D-01  7.69D-01
                    CP:  8.39D-01  6.70D-01
 E= -1311.17139411194     Delta-E=       -0.000000000010 Rises=F Damp=F
 DIIS: error= 3.71D-08 at cycle   8 NSaved=   8.
 NSaved= 8 IEnMin= 8 EnMin= -1311.17139411194     IErMin= 8 ErrMin= 3.71D-08
 ErrMax= 3.71D-08  0.00D+00 EMaxC= 1.00D-01 BMatC= 5.12D-13 BMatP= 9.18D-12
 IDIUse=1 WtCom= 1.00D+00 WtEn= 0.00D+00
 Coeff-Com:  0.456D-04-0.282D-02-0.294D-02 0.183D-02 0.155D-01 0.957D-01
 Coeff-Com:  0.238D+00 0.654D+00
 Coeff:      0.456D-04-0.282D-02-0.294D-02 0.183D-02 0.155D-01 0.957D-01
 Coeff:      0.238D+00 0.654D+00
 Gap=     0.141 Goal=   None    Shift=    0.000
 RMSDP=3.04D-09 MaxDP=7.61D-08 DE=-1.05D-11 OVMax= 2.74D-07

 CoulSu:  requested number of processors reduced to:  18 ShMem   1 Linda.
 CoulSu:  requested number of processors reduced to:  17 ShMem   1 Linda.
 Error on total polarization charges =  0.03278
 SCF Done:  E(RB3LYP) =  -1311.17139411     A.U. after    8 cycles
            NFock=  8  Conv=0.30D-08     -V/T= 2.1658
 KE= 1.124716038820D+03 PE=-4.082995670959D+03 EE= 1.121389741881D+03
 SMD-CDS (non-electrostatic) energy       (kcal/mol) =      -2.42
 (included in total energy above)
 Leave Link  502 at Tue Sep 18 10:39:00 2018, MaxMem=   104857600 cpu:             389.5 elap:              16.7
 (Enter /home/miro_lab/software/g16/l701.exe)
 ... and contract with generalized density number  0.
 Compute integral first derivatives.
 R6Disp: Adding Grimme-D3(BJ) dispersion energy 1st derivatives to the gradient.
 PrsmSu:  requested number of processors reduced to:   6 ShMem   1 Linda.
 PrsmSu:  requested number of processors reduced to:  18 ShMem   1 Linda.
   1 Symmetry operations used in ECPInt.
 ECPInt:  NShTT=    5253 NPrTT=   18162 LenC2=    4923 LenP2D=   12909.
 LDataN:  DoStor=T MaxTD1= 8 Len=  415
 D1PCM: PCM CHGder 1st derivatives, ID1Alg=3 FixD1E=F DoIter=F DoCFld=F I1PDM=0.
 GePol: Maximum number of non-zero 1st derivatives   =     390
 CoulSu:  requested number of processors reduced to:  17 ShMem   1 Linda.
 CoulSu:  requested number of processors reduced to:  17 ShMem   1 Linda.
 CoulSu:  requested number of processors reduced to:  17 ShMem   1 Linda.
 CoulSu:  requested number of processors reduced to:  17 ShMem   1 Linda.
 CoulSu:  requested number of processors reduced to:   7 ShMem   1 Linda.
 CoulSu:  requested number of processors reduced to:   7 ShMem   1 Linda.
 CoulSu:  requested number of processors reduced to:  17 ShMem   1 Linda.
 CoulSu:  requested number of processors reduced to:  17 ShMem   1 Linda.
 Leave Link  701 at Tue Sep 18 10:39:02 2018, MaxMem=   104857600 cpu:              32.0 elap:               1.7
 (Enter /home/miro_lab/software/g16/l702.exe)
 L702 exits ... SP integral derivatives will be done elsewhere.
 Leave Link  702 at Tue Sep 18 10:39:02 2018, MaxMem=   104857600 cpu:               0.5 elap:               0.0
 (Enter /home/miro_lab/software/g16/l703.exe)
 Integral derivatives from FoFJK, PRISM(SPDF).
 Compute integral first derivatives, UseDBF=F ICtDFT=           0.
 Calling FoFJK, ICntrl=      2127 FMM=F ISym2X=0 I1Cent= 0 IOpClX= 0 NMat=1 NMatS=1 NMatT=0.
 FoFJK:  IHMeth= 1 ICntrl=    2127 DoSepK=F KAlg= 0 I1Cent=           0 FoldK=F
 IRaf=         0 NMat=       1 IRICut=       1 DoRegI=T DoRafI=F ISym2E= 0 IDoP0=0 IntGTp=1.
 FoFCou: FMM=F IPFlag=           0 FMFlag=      100000 FMFlg1=         800
         NFxFlg=           0 DoJE=F BraDBF=F KetDBF=F FulRan=T
         wScrn=  0.000000 ICntrl=      2127 IOpCl=  0 I1Cent=           0 NGrid=           0
         NMat0=    1 NMatS0=      1 NMatT0=    0 NMatD0=    1 NMtDS0=    0 NMtDT0=    0
 Symmetry not used in FoFCou.
 CoulSu:  requested number of processors reduced to:  18 ShMem   1 Linda.
 Defaulting to unpruned grid for atomic number  53.
 Defaulting to unpruned grid for atomic number  53.
 Defaulting to unpruned grid for atomic number  53.
 Defaulting to unpruned grid for atomic number  53.
 Defaulting to unpruned grid for atomic number  53.
 Defaulting to unpruned grid for atomic number  53.
 Defaulting to unpruned grid for atomic number  53.
 Defaulting to unpruned grid for atomic number  53.
 Defaulting to unpruned grid for atomic number  53.
 Defaulting to unpruned grid for atomic number  53.
 Defaulting to unpruned grid for atomic number  53.
 Defaulting to unpruned grid for atomic number  53.
 Defaulting to unpruned grid for atomic number  53.
[...]
   A16        1.88135  -0.00002   0.00000  -0.00087  -0.00087   1.88048
   A17        1.60124   0.00001   0.00000  -0.00001  -0.00001   1.60122
   A18        3.12117  -0.00000   0.00000  -0.00023  -0.00023   3.12094
   A19        3.17273   0.00000   0.00000  -0.00040  -0.00040   3.17233
   A20        2.76569   0.00000   0.00000  -0.00105  -0.00105   2.76464
   A21        3.45367   0.00000   0.00000  -0.00107  -0.00107   3.45260
    D1       -0.00183  -0.00001   0.00000  -0.00031  -0.00031  -0.00215
    D2        3.13384  -0.00001   0.00000   0.00002   0.00002   3.13386
    D3       -3.12490  -0.00000   0.00000  -0.00028  -0.00028  -3.12517
    D4        0.01078   0.00000   0.00000   0.00006   0.00006   0.01084
    D5       -0.00772   0.00001   0.00000   0.00029   0.00029  -0.00744
    D6        3.11701   0.00001   0.00000   0.00026   0.00026   3.11726
    D7        0.01370   0.00001   0.00000   0.00018   0.00018   0.01388
    D8       -3.07646  -0.00000   0.00000  -0.00062  -0.00062  -3.07708
    D9        1.41608  -0.00001   0.00000  -0.00174  -0.00174   1.41434
   D10       -3.12195   0.00000   0.00000  -0.00016  -0.00016  -3.12211
   D11        0.07107  -0.00001   0.00000  -0.00096  -0.00096   0.07012
   D12       -1.71958  -0.00001   0.00000  -0.00208  -0.00208  -1.72165
   D13       -3.03638  -0.00002   0.00000  -0.00023  -0.00023  -3.03661
   D14       -0.01924   0.00001   0.00000   0.00004   0.00004  -0.01920
   D15        0.05452  -0.00001   0.00000   0.00057   0.00057   0.05509
   D16        3.07166   0.00001   0.00000   0.00084   0.00084   3.07250
   D17        0.01543  -0.00001   0.00000  -0.00018  -0.00018   0.01525
   D18        3.04283   0.00001   0.00000   0.00006   0.00006   3.04290
   D19       -1.45959  -0.00001   0.00000  -0.00207  -0.00207  -1.46166
   D20        3.03629  -0.00000   0.00000  -0.00139  -0.00140   3.03490
         Item               Value     Threshold  Converged?
 Maximum Force            0.000047     0.000450     YES
 RMS     Force            0.000015     0.000300     YES
 Maximum Displacement     0.004429     0.001800     NO 
 RMS     Displacement     0.001314     0.001200     NO 
 Predicted change in Energy=-1.036386D-07
                           ----------------------------
                           ! Non-Optimized Parameters !
                           ! (Angstroms and Degrees)  !
 --------------------------                            --------------------------
 ! Name  Definition              Value          Derivative Info.                !
 --------------------------------------------------------------------------------
 ! R1    R(1,2)                  1.3635         -DE/DX =    0.0                 !
 ! R2    R(1,7)                  1.7219         -DE/DX =    0.0                 !
 ! R3    R(1,8)                  1.0789         -DE/DX =    0.0                 !
 ! R4    R(2,3)                  1.4227         -DE/DX =    0.0                 !
 ! R5    R(2,11)                 1.08           -DE/DX =    0.0                 !
 ! R6    R(3,4)                  1.3819         -DE/DX =    0.0                 !
 ! R7    R(3,5)                  1.0802         -DE/DX =    0.0                 !
 ! R8    R(3,9)                  3.0101         -DE/DX =    0.0                 !
 ! R9    R(4,6)                  1.0784         -DE/DX =    0.0                 !
 ! R10   R(4,7)                  1.7222         -DE/DX =    0.0                 !
 ! R11   R(4,9)                  2.9551         -DE/DX =    0.0                 !
 ! R12   R(9,10)                 2.4308         -DE/DX =    0.0                 !
 ! A1    A(2,1,7)              112.0587         -DE/DX =    0.0                 !
 ! A2    A(2,1,8)              127.9657         -DE/DX =    0.0                 !
 ! A3    A(7,1,8)              119.9672         -DE/DX =    0.0                 !
 ! A4    A(1,2,3)              112.4605         -DE/DX =    0.0                 !
 ! A5    A(1,2,11)             123.6096         -DE/DX =    0.0                 !
 ! A6    A(3,2,11)             123.929          -DE/DX =    0.0                 !
 ! A7    A(2,3,4)              112.4763         -DE/DX =    0.0                 !
 ! A8    A(2,3,5)              124.3577         -DE/DX =    0.0                 !
 ! A9    A(2,3,9)              108.3349         -DE/DX =    0.0                 !
 ! A10   A(4,3,5)              123.099          -DE/DX =    0.0                 !
 ! A11   A(5,3,9)               89.6689         -DE/DX =    0.0                 !
 ! A12   A(3,4,6)              127.7902         -DE/DX =    0.0                 !
 ! A13   A(3,4,7)              111.2508         -DE/DX =    0.0                 !
 ! A14   A(6,4,7)              120.5808         -DE/DX =    0.0                 !
 ! A15   A(6,4,9)               90.8106         -DE/DX =    0.0                 !
 ! A16   A(7,4,9)              107.7435         -DE/DX =    0.0                 !
 ! A17   A(1,7,4)               91.7434         -DE/DX =    0.0                 !
 ! A18   L(3,9,10,8,-1)        178.8168         -DE/DX =    0.0                 !
 ! A19   L(4,9,10,8,-1)        181.7613         -DE/DX =    0.0                 !
 ! A20   L(3,9,10,8,-2)        158.402          -DE/DX =    0.0                 !
 ! A21   L(4,9,10,8,-2)        197.8197         -DE/DX =    0.0                 !
 ! D1    D(7,1,2,3)             -0.123          -DE/DX =    0.0                 !
 ! D2    D(7,1,2,11)           179.5571         -DE/DX =    0.0                 !
 ! D3    D(8,1,2,3)           -179.0593         -DE/DX =    0.0                 !
 ! D4    D(8,1,2,11)             0.6208         -DE/DX =    0.0                 !
 ! D5    D(2,1,7,4)             -0.426          -DE/DX =    0.0                 !
 ! D6    D(8,1,7,4)            178.606          -DE/DX =    0.0                 !
 ! D7    D(1,2,3,4)              0.795          -DE/DX =    0.0                 !
 ! D8    D(1,2,3,5)           -176.3037         -DE/DX =    0.0                 !
 ! D9    D(1,2,3,9)             81.0355         -DE/DX =    0.0                 !
 ! D10   D(11,2,3,4)          -178.8839         -DE/DX =    0.0                 !
 ! D11   D(11,2,3,5)             4.0173         -DE/DX =    0.0                 !
 ! D12   D(11,2,3,9)           -98.6434         -DE/DX =    0.0                 !
 ! D13   D(2,3,4,6)           -173.9849         -DE/DX =    0.0                 !
 ! D14   D(2,3,4,7)             -1.0999         -DE/DX =    0.0                 !
 ! D15   D(5,3,4,6)              3.1561         -DE/DX =    0.0                 !
 ! D16   D(5,3,4,7)            176.0411         -DE/DX =    0.0                 !
 ! D17   D(3,4,7,1)              0.8736         -DE/DX =    0.0                 !
 ! D18   D(6,4,7,1)            174.3451         -DE/DX =    0.0                 !
 ! D19   D(9,4,7,1)            -83.7468         -DE/DX =    0.0                 !
 ! D20   D(10,4,9,3)           173.8867         -DE/DX =    0.0                 !
 --------------------------------------------------------------------------------
 GradGradGradGradGradGradGradGradGradGradGradGradGradGradGradGradGradGrad

 Leave Link  103 at Tue Sep 18 10:44:46 2018, MaxMem=   104857600 cpu:               6.7 elap:               0.3
 (Enter /home/miro_lab/software/g16/l9999.exe)

 ----------------------------------------------------------------------

 Electric dipole moment (input orientation):
 (Debye = 10**-18 statcoulomb cm , SI units = C m)
                  (au)            (Debye)         (10**-30 SI)
   Tot        0.242795D+01      0.617124D+01      0.205850D+02
   x          0.234831D+01      0.596882D+01      0.199098D+02
   y          0.513026D+00      0.130398D+01      0.434962D+01
   z         -0.342323D+00     -0.870099D+00     -0.290234D+01

 Dipole polarizability, Alpha (input orientation).
 (esu units = cm**3 , SI units = C**2 m**2 J**-1)
 Alpha(0;0):
               (au)            (10**-24 esu)      (10**-40 SI)
   iso        0.169415D+03      0.251048D+02      0.279328D+02
   aniso      0.122999D+03      0.182266D+02      0.202798D+02
   xx         0.250835D+03      0.371699D+02      0.413570D+02
   yx         0.532820D+01      0.789558D+00      0.878502D+00
   yy         0.135211D+03      0.200363D+02      0.222934D+02
   zx        -0.974577D-01     -0.144417D-01     -0.160686D-01
   zy         0.621707D+00      0.921275D-01      0.102506D+00
   zz         0.122200D+03      0.181082D+02      0.201481D+02

 ----------------------------------------------------------------------

 Dipole orientation:
     6          2.98156687          0.22448810          5.17800841
     6          1.47862212         -1.84100102          4.84052213
     6         -0.97176097         -1.19275741          3.94347471
     6         -1.25687648          1.37861951          3.58847380
     1         -2.48491765         -2.53265435          3.65619233
     1         -2.95466293          2.38973783          3.08994051
    16          1.44934423          2.98977746          4.40740803
     1          4.91930701          0.27582862          5.81021118
    53         -0.66228587         -0.39206467         -1.67588134
    17         -0.17048994         -0.87554988         -6.21724256
     1          2.08908727         -3.75435624          5.20463075

 Electric dipole moment (dipole orientation):
 (Debye = 10**-18 statcoulomb cm , SI units = C m)
                  (au)            (Debye)         (10**-30 SI)
   Tot        0.242795D+01      0.617124D+01      0.205850D+02
   x          0.000000D+00      0.000000D+00      0.000000D+00
   y          0.000000D+00      0.000000D+00      0.000000D+00
   z          0.242795D+01      0.617124D+01      0.205850D+02

 Dipole polarizability, Alpha (dipole orientation).
 (esu units = cm**3 , SI units = C**2 m**2 J**-1)
 Alpha(0;0):
               (au)            (10**-24 esu)      (10**-40 SI)
   iso        0.169415D+03      0.251048D+02      0.279328D+02
   aniso      0.122999D+03      0.182266D+02      0.202798D+02
   xx         0.126198D+03      0.187006D+02      0.208072D+02
   yx         0.472886D+01      0.700745D+00      0.779684D+00
   yy         0.136766D+03      0.202666D+02      0.225496D+02
   zx         0.212514D+02      0.314913D+01      0.350388D+01
   zy         0.149716D+02      0.221857D+01      0.246849D+01
   zz         0.245283D+03      0.363471D+02      0.404416D+02

 ----------------------------------------------------------------------
 1\1\GINC-NODE19\Freq\RB3LYP\def2TZVP\C4H4Cl1I1S1\PERE.MIRO@USD.LOCAL\1
 8-Sep-2018\0\\#P Geom=AllCheck Guess=TCheck SCRF=Check GenChk RB3LYP/d
 ef2TZVP Freq\\Title Card Required\\0,1\C,2.9556777952,0.1822301155,1.1
 145916713\C,2.4439150173,1.3371883294,0.6014877949\C,1.8126682778,1.13
 95284786,-0.6582208384\C,1.8475198781,-0.180610328,-1.0651805395\H,1.3
 94401707,1.932126139,-1.2614292189\H,1.5263702962,-0.5895551126,-2.010
 0035056\S,2.6773266488,-1.1647723696,0.0786637127\H,3.4688173695,0.043
 1487865,2.0534556497\I,-0.9580372514,0.0747382953,-0.1700945558\Cl,-3.
 2813446847,-0.2338305896,0.4745082798\H,2.5071059461,2.2929232555,1.10
 07115497\\Version=EM64L-G16RevA.03\State=1-A\HF=-1311.171396\RMSD=1.90
 9e-09\RMSF=3.174e-05\ZeroPoint=0.0682979\Thermal=0.0766074\Dipole=2.34
 83132,0.513026,-0.3423233\DipoleDeriv=-0.3104528,-0.0207528,0.0613958,
 -0.0002581,0.4177817,0.0693289,-0.1732274,0.1900544,-0.0628355,-0.2189
 592,0.0688112,-0.0000321,0.1355846,-0.2252236,0.0559651,-0.0244771,0.2
 238717,-0.1770367,-0.4809709,-0.0099359,0.2072895,0.9290428,-0.1645823
 ,0.0509751,0.7360132,-0.0730537,0.0374037,-0.8134989,-0.3503382,0.0979
 943,-1.1828328,0.1041258,-0.1353494,0.1910497,-0.1979107,-0.1053445,0.
 229625,0.0341627,-0.0672129,0.0562886,0.068469,0.0506879,-0.1002462,0.
 0287696,0.1161719,0.2577249,0.0406401,-0.0367521,0.0700637,0.1323931,0
 .0189017,-0.1230364,-0.0225194,0.1104029,0.111145,0.0910501,-0.0409749
 ,-0.071923,-0.2455675,0.0414919,-0.0733388,-0.0431265,0.0547914,0.2088
 032,0.0187859,-0.0567686,0.0110519,0.110672,-0.0357159,-0.0720499,-0.0
 083727,0.0854133,2.9252324,0.2821804,-0.3673225,0.2910335,0.0559948,-0
 .085574,-0.8232154,-0.0894397,0.133033,-2.0880063,-0.1751101,0.2357586
 ,-0.2227399,-0.2590629,0.0444812,0.5294997,0.0538362,-0.3139943,0.1793
 577,0.0205067,-0.0333752,-0.0153112,0.0049999,-0.0751925,-0.0669714,-0
 .0621093,0.1219949\Polar=250.8346322,5.328204,135.2114535,-0.0974577,0
 .6217074,122.2002504\Quadrupole=-5.2655862,1.8666903,3.3988958,0.74904
 87,3.3041257,0.6052059\PG=C01 [X(C4H4Cl1I1S1)]\NImag=0\\0.26546692,-0.
 12997048,0.50709736,0.26673332,-0.08751901,0.57197497,-0.11067876,0.09
 145983,-0.06177411,0.24305655,0.10899457,-0.31512148,0.10665823,-0.084
 56439,0.77871955,-0.05328147,0.06867610,-0.13502714,0.18202992,0.09559
 399,0.50439278,-0.01222905,0.03536377,-0.02312158,-0.10089953,-0.01794
 203,-0.07693836,0.24647082,0.00602115,0.01854135,0.01663414,0.00538782
 ,-0.11395787,-0.00566682,-0.12185707,0.70466956,-0.03131232,0.05375157
 ,-0.02998697,-0.07903000,-0.04235154,-0.22702676,0.20401414,-0.0464640
 3,0.52493918,-0.00539700,-0.00581046,-0.02799258,0.00344371,-0.0044037
 0,-0.01205530,-0.05452151,0.01723760,-0.00979863,0.17725370,0.00225767
 ,-0.01622661,-0.00619574,-0.02837271,-0.01164149,-0.05773321,0.0128786
 0,-0.33584901,-0.05812682,-0.01034510,0.55418178,-0.02452072,-0.008960
 29,-0.04079912,-0.01221093,-0.02755959,-0.02449583,-0.01177695,-0.0887
 4001,-0.11423441,0.18185210,0.18077837,0.56522799,0.00138695,-0.000977
 01,-0.00310082,-0.00174244,0.00958039,-0.00473229,-0.07943321,0.085597
 02,-0.07138186,0.00271208,0.00014290,-0.00064004,0.07774205,-0.0008764
 7,-0.00040933,-0.00259616,-0.00317582,0.00956486,-0.00533331,0.0849072
 0,-0.21185801,0.11880476,0.01062270,-0.01490879,0.01563891,-0.09182843
 ,0.21961721,-0.00342300,-0.00047135,-0.00396676,-0.00651399,0.01926547
 ,-0.00546438,-0.07377957,0.11746147,-0.14356464,0.00428150,-0.00893614
 ,0.00908682,0.07824467,-0.12662909,0.14257791,-0.00073702,0.00306340,-
 0.00144458,0.00463201,0.00038066,-0.00047473,0.00153081,-0.00093155,0.
 00139457,-0.05432393,-0.02961575,-0.08859021,-0.00287490,-0.00070975,0
 .00130266,0.05679884,0.00284938,-0.00396332,0.00388299,0.00102803,-0.0
 0499498,-0.00158115,-0.00940689,-0.00089417,-0.02360761,-0.02833331,-0
 .09406078,-0.10336297,-0.00060234,0.00093138,0.00112855,0.03120152,0.0
 9331415,-0.00099507,0.00151438,-0.00085700,-0.00109037,-0.00048611,0.0
 0111959,-0.00032766,0.00206935,0.00129210,-0.09124896,-0.10639097,-0.2
 8286700,0.00131744,-0.00019611,-0.00045442,0.09399090,0.10976698,0.290
 46593,-0.04074858,-0.02428748,-0.02084347,0.00513060,0.00079928,-0.007
 91756,-0.00298859,0.02672284,-0.00588722,-0.06502390,0.04474160,-0.044
 12088,0.00498689,0.00118453,-0.00107181,-0.00526816,0.00399312,-0.0013
 6769,0.10622862,-0.00975518,-0.11349781,-0.04918636,0.02198061,-0.0677
 1296,0.01089320,0.00951060,-0.06037088,-0.00828175,0.02555642,-0.07763
 059,0.03531496,0.00032316,-0.00296416,-0.00363647,-0.00443622,0.007656
 57,-0.00481118,-0.04826620,0.31397538,-0.01499617,-0.07264245,-0.09206
 849,0.00009191,-0.02832204,0.00143124,-0.02004666,0.02398258,-0.007241
 56,-0.04264516,0.05972158,-0.10355205,-0.00140779,-0.00059139,0.001496
 54,-0.00746208,0.01460123,-0.00830216,0.08880614,0.01585334,0.21362777
 ,-0.10237789,0.02295494,-0.13550495,-0.00009340,-0.00138101,-0.0073746
 9,0.00419083,0.00297714,-0.00256656,0.00119123,-0.00013806,-0.00011825
 ,0.00014422,-0.00026028,-0.00055693,0.00172513,0.00058033,-0.00081332,
 -0.00244616,-0.00005731,0.00081583,0.10052689,0.02188309,-0.05587642,0
 .03133743,0.01075095,0.00559275,0.02148463,0.00279375,-0.00393315,0.00
 151568,-0.00024601,-0.00556449,-0.00386840,0.00055412,0.00060017,0.001
 03348,-0.00041588,0.00155082,-0.00066322,-0.01014489,0.00337175,-0.017
 03130,-0.02390884,0.05350305,-0.13683161,0.03412926,-0.27770914,-0.001
 75350,-0.00248667,-0.00101000,-0.00246302,0.00047123,0.00130035,-0.000
 00123,-0.00137780,-0.00021582,-0.00022683,-0.00006186,0.00008907,-0.00
 109822,0.00002830,0.00050830,-0.00293514,0.00208594,-0.00761872,0.1437
 0413,-0.03346108,0.28542339,0.00115742,-0.00351257,0.00463370,-0.00390
 933,-0.00152206,-0.00251885,0.00252295,-0.01974771,-0.00923802,0.00328
 829,0.02120983,0.00291080,-0.00246489,0.00005084,0.00077934,-0.0031846
 2,-0.00113632,0.00157779,-0.00521955,0.00459792,-0.00050777,0.00007197
 ,-0.00009368,-0.00014723,0.08303881,0.00116076,-0.00632465,-0.00107121
 ,-0.00335433,0.00276260,-0.00667194,0.00625164,-0.00127105,0.00227726,
 -0.00635757,0.00303525,0.00002456,-0.00266620,-0.00081332,0.00156295,0
 .00154671,0.00013267,-0.00102427,0.00406293,-0.00071165,0.00635301,-0.
 00005043,-0.00010046,0.00007633,0.00926517,0.00841894,-0.00223587,-0.0
 0002234,-0.00145340,-0.00259030,0.00133889,-0.00116656,0.00251016,0.00
 541727,0.00079457,-0.00175459,-0.00376377,-0.00480300,0.00112751,0.000
 23012,-0.00046110,0.00302017,0.00044554,-0.00170222,-0.00206090,-0.001
 93658,0.00045724,0.00058366,0.00015776,-0.00011804,-0.01738576,-0.0051
 5886,0.01970410,-0.00053524,0.00135085,-0.00246999,0.00017513,0.001113
 84,0.00011373,-0.00593676,0.01119701,0.00797534,-0.00905720,-0.0130843
 0,0.00109147,0.00083416,-0.00003504,-0.00047400,0.00094829,0.00050860,
 -0.00075195,0.00072593,-0.00254068,-0.00032386,0.00019690,0.00008110,-
 0.00001046,-0.07600745,-0.00994151,0.01884201,0.08886039,-0.00038142,0
 .00170433,0.00022238,0.00050562,-0.00060220,0.00179412,-0.00310324,0.0
 0139518,0.00028514,0.00127132,-0.00161009,0.00010598,0.00040969,0.0002
 7426,-0.00047925,-0.00015225,0.00005369,0.00023623,-0.00061514,0.00001
 602,-0.00200443,0.00003876,0.00003627,-0.00002896,-0.00952293,-0.00518
 266,0.00338370,0.01154698,0.00393289,0.00081952,-0.00024783,0.00086574
 ,0.00056193,-0.00060577,0.00051574,0.00066153,-0.00298661,-0.00125400,
 0.00271644,0.00300751,0.00076702,-0.00026871,-0.00008090,0.00021942,-0
 .00049157,-0.00014185,0.00057510,0.00045264,0.00094970,0.00003330,-0.0
 0020794,-0.00006356,0.00004800,0.01933691,0.00357113,-0.01110219,-0.02
 364974,-0.00347671,0.00924987,0.00469224,0.01036520,0.00488505,-0.0391
 1454,-0.01105556,-0.01685040,0.00129324,-0.01260426,-0.00416944,0.0004
 3454,0.00032532,-0.00387639,-0.00129091,0.00012053,0.00121112,0.000753
 54,-0.00068211,-0.00029112,0.00462290,0.00308689,-0.00232439,-0.003129
 73,-0.00125370,0.00176312,0.00070640,0.00008284,-0.00005610,-0.0002041
 6,0.00000261,0.00006899,0.03123648,-0.00218307,-0.01592342,-0.01216668
 ,-0.01164561,-0.28260877,-0.12145561,0.00060367,0.00352806,0.00219735,
 0.00080812,0.00027483,0.00062849,-0.00053331,-0.00003427,-0.00029962,0
 .00006911,0.00027399,-0.00001506,0.00180940,-0.00213167,0.00007988,-0.
 00075523,0.00081970,0.00062531,0.00041152,0.00005434,-0.00009173,-0.00
 019685,-0.00001768,0.00007490,0.01161224,0.29576489,0.00004339,0.01179
 195,0.00902731,-0.01772057,-0.12104484,-0.11326868,0.00126796,-0.02217
 857,-0.00501785,-0.00335360,-0.00098301,-0.00411459,0.00106872,0.00081
 504,0.00044154,-0.00014691,-0.00116000,0.00022178,-0.00305409,0.002755
 21,0.00173690,0.00203901,-0.00044141,-0.00069738,0.00055909,0.00006104
 ,-0.00014939,-0.00034256,-0.00003819,0.00008200,0.01963956,0.13042278,
 0.11173836\\-0.00004153,-0.00001396,-0.00006373,0.00003019,-0.00002878
 ,-0.00002186,-0.00002227,-0.00006673,0.00001508,-0.00001566,0.00002120
 ,0.00007803,-0.00001676,0.00004730,-0.00001521,0.00000546,-0.00001324,
 -0.00005028,0.00003612,0.00002415,-0.00001929,0.00002340,0.00000325,0.
 00003717,-0.00000904,-0.00000368,0.00001504,0.00001795,-0.00001531,0.0
 0000714,-0.00000787,0.00004580,0.00001791\\\@


 NEVER TEACH A PIG TO SING.
 IT WASTES YOUR TIME AND ANNOYS THE PIG.
     -- SEEN ON A GREETING CARD
 Job cpu time:       0 days  1 hours 25 minutes 47.6 seconds.
 Elapsed time:       0 days  0 hours  4 minutes 21.9 seconds.
 File lengths (MBytes):  RWF=    129 Int=      0 D2E=      0 Chk=     11 Scr=      1
 Normal termination of Gaussian 16 at Tue Sep 18 10:44:46 2018.
